ITEM: TIMESTEP
0
ITEM: NUMBER OF ATOMS
2
ITEM: BOX BOUNDS pp pp pp
0 1
0 1
0 1
ITEM: ATOMS id x y z E
0 0.649998 0.5 0.5 0.00125001
1 0.350002 0.5 0.5 0.00125001
ITEM: TIMESTEP
0.01
ITEM: NUMBER OF ATOMS
2
ITEM: BOX BOUNDS pp pp pp
0 1
0 1
0 1
ITEM: ATOMS id x y z E
0 0.64999 0.5 0.5 0.00125003
1 0.35001 0.5 0.5 0.00125003
ITEM: TIMESTEP
0.02
ITEM: NUMBER OF ATOMS
2
ITEM: BOX BOUNDS pp pp pp
0 1
0 1
0 1
ITEM: ATOMS id x y z E
0 0.649978 0.5 0.5 0.00125005
1 0.350023 0.5 0.5 0.00125005
ITEM: TIMESTEP
0.03
ITEM: NUMBER OF ATOMS
2
ITEM: BOX BOUNDS pp pp pp
0 1
0 1
0 1
ITEM: ATOMS id x y z E
0 0.64996 0.5 0.5 0.00125003
1 0.35004 0.5 0.5 0.00125003
ITEM: TIMESTEP
0.04
ITEM: NUMBER OF ATOMS
2
ITEM: BOX BOUNDS pp pp pp
0 1
0 1
0 1
ITEM: ATOMS id x y z E
0 0.649938 0.5 0.5 0.00125002
1 0.350062 0.5 0.5 0.00125002
ITEM: TIMESTEP
0.05
ITEM: NUMBER OF ATOMS
2
ITEM: BOX BOUNDS pp pp pp
0 1
0 1
0 1
ITEM: ATOMS id x y z E
0 0.64991 0.5 0.5 0.00125001
1 0.35009 0.5 0.5 0.00125001
ITEM: TIMESTEP
0.06
ITEM: NUMBER OF ATOMS
2
ITEM: BOX BOUNDS pp pp pp
0 1
0 1
0 1
ITEM: ATOMS id x y z E
0 0.649877 0.5 0.5 0.00125002
1 0.350123 0.5 0.5 0.00125002
ITEM: TIMESTEP
0.07
ITEM: NUMBER OF ATOMS
2
ITEM: BOX BOUNDS pp pp pp
0 1
0 1
0 1
ITEM: ATOMS id x y z E
0 0.64984 0.5 0.5 0.00125004
1 0.35016 0.5 0.5 0.00125004
ITEM: TIMESTEP
0.08
ITEM: NUMBER OF ATOMS
2
ITEM: BOX BOUNDS pp pp pp
0 1
0 1
0 1
ITEM: ATOMS id x y z E
0 0.649798 0.5 0.5 0.00125006
1 0.350202 0.5 0.5 0.00125006
ITEM: TIMESTEP
0.09
ITEM: NUMBER OF ATOMS
2
ITEM: BOX BOUNDS pp pp pp
0 1
0 1
0 1
ITEM: ATOMS id x y z E
0 0.649751 0.5 0.5 0.00125005
1 0.35025 0.5 0.5 0.00125005
ITEM: TIMESTEP
0.1
ITEM: NUMBER OF ATOMS
2
ITEM: BOX BOUNDS pp pp pp
0 1
0 1
0 1
ITEM: ATOMS id x y z E
0 0.649698 0.5 0.5 0.00125004
1 0.350302 0.5 0.5 0.00125004
ITEM: TIMESTEP
0.11
ITEM: NUMBER OF ATOMS
2
ITEM: BOX BOUNDS pp pp pp
0 1
0 1
0 1
ITEM: ATOMS id x y z E
0 0.649641 0.5 0.5 0.00125003
1 0.350359 0.5 0.5 0.00125003
ITEM: TIMESTEP
0.12
ITEM: NUMBER OF ATOMS
2
ITEM: BOX BOUNDS pp pp pp
0 1
0 1
0 1
ITEM: ATOMS id x y z E
0 0.649578 0.5 0.5 0.00125004
1 0.350422 0.5 0.5 0.00125004
ITEM: TIMESTEP
0.13
ITEM: NUMBER OF ATOMS
2
ITEM: BOX BOUNDS pp pp pp
0 1
0 1
0 1
ITEM: ATOMS id x y z E
0 0.649512 0.5 0.5 0.00125006
1 0.350489 0.5 0.5 0.00125006
ITEM: TIMESTEP
0.14
ITEM: NUMBER OF ATOMS
2
ITEM: BOX BOUNDS pp pp pp
0 1
0 1
0 1
ITEM: ATOMS id x y z E
0 0.64944 0.5 0.5 0.00125008
1 0.350561 0.5 0.5 0.00125008
ITEM: TIMESTEP
0.15
ITEM: NUMBER OF ATOMS
2
ITEM: BOX BOUNDS pp pp pp
0 1
0 1
0 1
ITEM: ATOMS id x y z E
0 0.649363 0.5 0.5 0.00125006
1 0.350638 0.5 0.5 0.00125006
ITEM: TIMESTEP
0.16
ITEM: NUMBER OF ATOMS
2
ITEM: BOX BOUNDS pp pp pp
0 1
0 1
0 1
ITEM: ATOMS id x y z E
0 0.649281 0.5 0.5 0.00125004
1 0.350719 0.5 0.5 0.00125004
ITEM: TIMESTEP
0.17
ITEM: NUMBER OF ATOMS
2
ITEM: BOX BOUNDS pp pp pp
0 1
0 1
0 1
ITEM: ATOMS id x y z E
0 0.649194 0.5 0.5 0.00125004
1 0.350806 0.5 0.5 0.00125004
ITEM: TIMESTEP
0.18
ITEM: NUMBER OF ATOMS
2
ITEM: BOX BOUNDS pp pp pp
0 1
0 1
0 1
ITEM: ATOMS id x y z E
0 0.649103 0.5 0.5 0.00125007
1 0.350897 0.5 0.5 0.00125007
ITEM: TIMESTEP
0.19
ITEM: NUMBER OF ATOMS
2
ITEM: BOX BOUNDS pp pp pp
0 1
0 1
0 1
ITEM: ATOMS id x y z E
0 0.649007 0.5 0.5 0.00125008
1 0.350994 0.5 0.5 0.00125008
ITEM: TIMESTEP
0.2
ITEM: NUMBER OF ATOMS
2
ITEM: BOX BOUNDS pp pp pp
0 1
0 1
0 1
ITEM: ATOMS id x y z E
0 0.648906 0.5 0.5 0.00125007
1 0.351095 0.5 0.5 0.00125007
ITEM: TIMESTEP
0.21
ITEM: NUMBER OF ATOMS
2
ITEM: BOX BOUNDS pp pp pp
0 1
0 1
0 1
ITEM: ATOMS id x y z E
0 0.648799 0.5 0.5 0.00125006
1 0.351201 0.5 0.5 0.00125006
ITEM: TIMESTEP
0.22
ITEM: NUMBER OF ATOMS
2
ITEM: BOX BOUNDS pp pp pp
0 1
0 1
0 1
ITEM: ATOMS id x y z E
0 0.648688 0.5 0.5 0.00125005
1 0.351311 0.5 0.5 0.00125005
ITEM: TIMESTEP
0.23
ITEM: NUMBER OF ATOMS
2
ITEM: BOX BOUNDS pp pp pp
0 1
0 1
0 1
ITEM: ATOMS id x y z E
0 0.648573 0.5 0.5 0.00125008
1 0.351427 0.5 0.5 0.00125008
ITEM: TIMESTEP
0.24
ITEM: NUMBER OF ATOMS
2
ITEM: BOX BOUNDS pp pp pp
0 1
0 1
0 1
ITEM: ATOMS id x y z E
0 0.648454 0.5 0.5 0.0012501
1 0.351547 0.5 0.5 0.0012501
ITEM: TIMESTEP
0.25
ITEM: NUMBER OF ATOMS
2
ITEM: BOX BOUNDS pp pp pp
0 1
0 1
0 1
ITEM: ATOMS id x y z E
0 0.648329 0.5 0.5 0.00125008
1 0.351672 0.5 0.5 0.00125008
ITEM: TIMESTEP
0.26
ITEM: NUMBER OF ATOMS
2
ITEM: BOX BOUNDS pp pp pp
0 1
0 1
0 1
ITEM: ATOMS id x y z E
0 0.648199 0.5 0.5 0.00125006
1 0.351801 0.5 0.5 0.00125006
ITEM: TIMESTEP
0.27
ITEM: NUMBER OF ATOMS
2
ITEM: BOX BOUNDS pp pp pp
0 1
0 1
0 1
ITEM: ATOMS id x y z E
0 0.648065 0.5 0.5 0.00125007
1 0.351935 0.5 0.5 0.00125007
ITEM: TIMESTEP
0.28
ITEM: NUMBER OF ATOMS
2
ITEM: BOX BOUNDS pp pp pp
0 1
0 1
0 1
ITEM: ATOMS id x y z E
0 0.647927 0.5 0.5 0.00125009
1 0.352074 0.5 0.5 0.00125009
ITEM: TIMESTEP
0.29
ITEM: NUMBER OF ATOMS
2
ITEM: BOX BOUNDS pp pp pp
0 1
0 1
0 1
ITEM: ATOMS id x y z E
0 0.647783 0.5 0.5 0.0012501
1 0.352217 0.5 0.5 0.0012501
ITEM: TIMESTEP
0.3
ITEM: NUMBER OF ATOMS
2
ITEM: BOX BOUNDS pp pp pp
0 1
0 1
0 1
ITEM: ATOMS id x y z E
0 0.647635 0.5 0.5 0.00125008
1 0.352365 0.5 0.5 0.00125008
ITEM: TIMESTEP
0.31
ITEM: NUMBER OF ATOMS
2
ITEM: BOX BOUNDS pp pp pp
0 1
0 1
0 1
ITEM: ATOMS id x y z E
0 0.647483 0.5 0.5 0.00125007
1 0.352517 0.5 0.5 0.00125007
ITEM: TIMESTEP
0.32
ITEM: NUMBER OF ATOMS
2
ITEM: BOX BOUNDS pp pp pp
0 1
0 1
0 1
ITEM: ATOMS id x y z E
0 0.647326 0.5 0.5 0.00125009
1 0.352674 0.5 0.5 0.00125009
ITEM: TIMESTEP
0.33
ITEM: NUMBER OF ATOMS
2
ITEM: BOX BOUNDS pp pp pp
0 1
0 1
0 1
ITEM: ATOMS id x y z E
0 0.647165 0.5 0.5 0.00125011
1 0.352836 0.5 0.5 0.00125011
ITEM: TIMESTEP
0.34
ITEM: NUMBER OF ATOMS
2
ITEM: BOX BOUNDS pp pp pp
0 1
0 1
0 1
ITEM: ATOMS id x y z E
0 0.646999 0.5 0.5 0.00125008
1 0.353001 0.5 0.5 0.00125008
ITEM: TIMESTEP
0.35
ITEM: NUMBER OF ATOMS
2
ITEM: BOX BOUNDS pp pp pp
0 1
0 1
0 1
ITEM: ATOMS id x y z E
0 0.646828 0.5 0.5 0.00125008
1 0.353171 0.5 0.5 0.00125008
ITEM: TIMESTEP
0.36
ITEM: NUMBER OF ATOMS
2
ITEM: BOX BOUNDS pp pp pp
0 1
0 1
0 1
ITEM: ATOMS id x y z E
0 0.646654 0.5 0.5 0.0012501
1 0.353346 0.5 0.5 0.0012501
ITEM: TIMESTEP
0.37
ITEM: NUMBER OF ATOMS
2
ITEM: BOX BOUNDS pp pp pp
0 1
0 1
0 1
ITEM: ATOMS id x y z E
0 0.646476 0.5 0.5 0.0012501
1 0.353525 0.5 0.5 0.0012501
ITEM: TIMESTEP
0.38
ITEM: NUMBER OF ATOMS
2
ITEM: BOX BOUNDS pp pp pp
0 1
0 1
0 1
ITEM: ATOMS id x y z E
0 0.646292 0.5 0.5 0.00125008
1 0.353708 0.5 0.5 0.00125008
ITEM: TIMESTEP
0.39
ITEM: NUMBER OF ATOMS
2
ITEM: BOX BOUNDS pp pp pp
0 1
0 1
0 1
ITEM: ATOMS id x y z E
0 0.646105 0.5 0.5 0.00125009
1 0.353895 0.5 0.5 0.00125009
ITEM: TIMESTEP
0.4
ITEM: NUMBER OF ATOMS
2
ITEM: BOX BOUNDS pp pp pp
0 1
0 1
0 1
ITEM: ATOMS id x y z E
0 0.645914 0.5 0.5 0.00125012
1 0.354087 0.5 0.5 0.00125012
ITEM: TIMESTEP
0.41
ITEM: NUMBER OF ATOMS
2
ITEM: BOX BOUNDS pp pp pp
0 1
0 1
0 1
ITEM: ATOMS id x y z E
0 0.645717 0.5 0.5 0.00125009
1 0.354283 0.5 0.5 0.00125009
ITEM: TIMESTEP
0.42
ITEM: NUMBER OF ATOMS
2
ITEM: BOX BOUNDS pp pp pp
0 1
0 1
0 1
ITEM: ATOMS id x y z E
0 0.645517 0.5 0.5 0.00125008
1 0.354483 0.5 0.5 0.00125008
ITEM: TIMESTEP
0.43
ITEM: NUMBER OF ATOMS
2
ITEM: BOX BOUNDS pp pp pp
0 1
0 1
0 1
ITEM: ATOMS id x y z E
0 0.645314 0.5 0.5 0.00125011
1 0.354687 0.5 0.5 0.00125011
ITEM: TIMESTEP
0.44
ITEM: NUMBER OF ATOMS
2
ITEM: BOX BOUNDS pp pp pp
0 1
0 1
0 1
ITEM: ATOMS id x y z E
0 0.645105 0.5 0.5 0.0012501
1 0.354895 0.5 0.5 0.0012501
ITEM: TIMESTEP
0.45
ITEM: NUMBER OF ATOMS
2
ITEM: BOX BOUNDS pp pp pp
0 1
0 1
0 1
ITEM: ATOMS id x y z E
0 0.644893 0.5 0.5 0.00125008
1 0.355107 0.5 0.5 0.00125008
ITEM: TIMESTEP
0.46
ITEM: NUMBER OF ATOMS
2
ITEM: BOX BOUNDS pp pp pp
0 1
0 1
0 1
ITEM: ATOMS id x y z E
0 0.644677 0.5 0.5 0.00125011
1 0.355323 0.5 0.5 0.00125011
ITEM: TIMESTEP
0.47
ITEM: NUMBER OF ATOMS
2
ITEM: BOX BOUNDS pp pp pp
0 1
0 1
0 1
ITEM: ATOMS id x y z E
0 0.644457 0.5 0.5 0.0012501
1 0.355543 0.5 0.5 0.0012501
ITEM: TIMESTEP
0.48
ITEM: NUMBER OF ATOMS
2
ITEM: BOX BOUNDS pp pp pp
0 1
0 1
0 1
ITEM: ATOMS id x y z E
0 0.644233 0.5 0.5 0.00125009
1 0.355767 0.5 0.5 0.00125009
ITEM: TIMESTEP
0.49
ITEM: NUMBER OF ATOMS
2
ITEM: BOX BOUNDS pp pp pp
0 1
0 1
0 1
ITEM: ATOMS id x y z E
0 0.644006 0.5 0.5 0.00125012
1 0.355995 0.5 0.5 0.00125012
ITEM: TIMESTEP
0.5
ITEM: NUMBER OF ATOMS
2
ITEM: BOX BOUNDS pp pp pp
0 1
0 1
0 1
ITEM: ATOMS id x y z E
0 0.643773 0.5 0.5 0.00125009
1 0.356227 0.5 0.5 0.00125009
ITEM: TIMESTEP
0.51
ITEM: NUMBER OF ATOMS
2
ITEM: BOX BOUNDS pp pp pp
0 1
0 1
0 1
ITEM: ATOMS id x y z E
0 0.643538 0.5 0.5 0.0012501
1 0.356462 0.5 0.5 0.0012501
ITEM: TIMESTEP
0.52
ITEM: NUMBER OF ATOMS
2
ITEM: BOX BOUNDS pp pp pp
0 1
0 1
0 1
ITEM: ATOMS id x y z E
0 0.6433 0.5 0.5 0.00125011
1 0.356701 0.5 0.5 0.00125011
ITEM: TIMESTEP
0.53
ITEM: NUMBER OF ATOMS
2
ITEM: BOX BOUNDS pp pp pp
0 1
0 1
0 1
ITEM: ATOMS id x y z E
0 0.643056 0.5 0.5 0.00125008
1 0.356944 0.5 0.5 0.00125008
ITEM: TIMESTEP
0.54
ITEM: NUMBER OF ATOMS
2
ITEM: BOX BOUNDS pp pp pp
0 1
0 1
0 1
ITEM: ATOMS id x y z E
0 0.64281 0.5 0.5 0.00125011
1 0.35719 0.5 0.5 0.00125011
ITEM: TIMESTEP
0.55
ITEM: NUMBER OF ATOMS
2
ITEM: BOX BOUNDS pp pp pp
0 1
0 1
0 1
ITEM: ATOMS id x y z E
0 0.64256 0.5 0.5 0.0012501
1 0.35744 0.5 0.5 0.0012501
ITEM: TIMESTEP
0.56
ITEM: NUMBER OF ATOMS
2
ITEM: BOX BOUNDS pp pp pp
0 1
0 1
0 1
ITEM: ATOMS id x y z E
0 0.642307 0.5 0.5 0.0012501
1 0.357693 0.5 0.5 0.0012501
ITEM: TIMESTEP
0.57
ITEM: NUMBER OF ATOMS
2
ITEM: BOX BOUNDS pp pp pp
0 1
0 1
0 1
ITEM: ATOMS id x y z E
0 0.64205 0.5 0.5 0.00125011
1 0.35795 0.5 0.5 0.00125011
ITEM: TIMESTEP
0.58
ITEM: NUMBER OF ATOMS
2
ITEM: BOX BOUNDS pp pp pp
0 1
0 1
0 1
ITEM: ATOMS id x y z E
0 0.641789 0.5 0.5 0.00125009
1 0.358211 0.5 0.5 0.00125009
ITEM: TIMESTEP
0.59
ITEM: NUMBER OF ATOMS
2
ITEM: BOX BOUNDS pp pp pp
0 1
0 1
0 1
ITEM: ATOMS id x y z E
0 0.641527 0.5 0.5 0.00125013
1 0.358474 0.5 0.5 0.00125013
ITEM: TIMESTEP
0.6
ITEM: NUMBER OF ATOMS
2
ITEM: BOX BOUNDS pp pp pp
0 1
0 1
0 1
ITEM: ATOMS id x y z E
0 0.641259 0.5 0.5 0.00125008
1 0.358741 0.5 0.5 0.00125008
ITEM: TIMESTEP
0.61
ITEM: NUMBER OF ATOMS
2
ITEM: BOX BOUNDS pp pp pp
0 1
0 1
0 1
ITEM: ATOMS id x y z E
0 0.640989 0.5 0.5 0.00125011
1 0.359011 0.5 0.5 0.00125011
ITEM: TIMESTEP
0.62
ITEM: NUMBER OF ATOMS
2
ITEM: BOX BOUNDS pp pp pp
0 1
0 1
0 1
ITEM: ATOMS id x y z E
0 0.640715 0.5 0.5 0.00125009
1 0.359285 0.5 0.5 0.00125009
ITEM: TIMESTEP
0.63
ITEM: NUMBER OF ATOMS
2
ITEM: BOX BOUNDS pp pp pp
0 1
0 1
0 1
ITEM: ATOMS id x y z E
0 0.640439 0.5 0.5 0.00125011
1 0.359561 0.5 0.5 0.00125011
ITEM: TIMESTEP
0.64
ITEM: NUMBER OF ATOMS
2
ITEM: BOX BOUNDS pp pp pp
0 1
0 1
0 1
ITEM: ATOMS id x y z E
0 0.640159 0.5 0.5 0.00125009
1 0.359841 0.5 0.5 0.00125009
ITEM: TIMESTEP
0.65
ITEM: NUMBER OF ATOMS
2
ITEM: BOX BOUNDS pp pp pp
0 1
0 1
0 1
ITEM: ATOMS id x y z E
0 0.639877 0.5 0.5 0.0012501
1 0.360123 0.5 0.5 0.0012501
ITEM: TIMESTEP
0.66
ITEM: NUMBER OF ATOMS
2
ITEM: BOX BOUNDS pp pp pp
0 1
0 1
0 1
ITEM: ATOMS id x y z E
0 0.639591 0.5 0.5 0.00125009
1 0.360409 0.5 0.5 0.00125009
ITEM: TIMESTEP
0.67
ITEM: NUMBER OF ATOMS
2
ITEM: BOX BOUNDS pp pp pp
0 1
0 1
0 1
ITEM: ATOMS id x y z E
0 0.639303 0.5 0.5 0.0012501
1 0.360698 0.5 0.5 0.0012501
ITEM: TIMESTEP
0.68
ITEM: NUMBER OF ATOMS
2
ITEM: BOX BOUNDS pp pp pp
0 1
0 1
0 1
ITEM: ATOMS id x y z E
0 0.639011 0.5 0.5 0.00125008
1 0.360989 0.5 0.5 0.00125008
ITEM: TIMESTEP
0.69
ITEM: NUMBER OF ATOMS
2
ITEM: BOX BOUNDS pp pp pp
0 1
0 1
0 1
ITEM: ATOMS id x y z E
0 0.638717 0.5 0.5 0.00125011
1 0.361283 0.5 0.5 0.00125011
ITEM: TIMESTEP
0.7
ITEM: NUMBER OF ATOMS
2
ITEM: BOX BOUNDS pp pp pp
0 1
0 1
0 1
ITEM: ATOMS id x y z E
0 0.638419 0.5 0.5 0.00125007
1 0.36158 0.5 0.5 0.00125007
ITEM: TIMESTEP
0.71
ITEM: NUMBER OF ATOMS
2
ITEM: BOX BOUNDS pp pp pp
0 1
0 1
0 1
ITEM: ATOMS id x y z E
0 0.638121 0.5 0.5 0.00125011
1 0.36188 0.5 0.5 0.00125011
ITEM: TIMESTEP
0.72
ITEM: NUMBER OF ATOMS
2
ITEM: BOX BOUNDS pp pp pp
0 1
0 1
0 1
ITEM: ATOMS id x y z E
0 0.637818 0.5 0.5 0.00125007
1 0.362182 0.5 0.5 0.00125007
ITEM: TIMESTEP
0.73
ITEM: NUMBER OF ATOMS
2
ITEM: BOX BOUNDS pp pp pp
0 1
0 1
0 1
ITEM: ATOMS id x y z E
0 0.637514 0.5 0.5 0.0012501
1 0.362487 0.5 0.5 0.0012501
ITEM: TIMESTEP
0.74
ITEM: NUMBER OF ATOMS
2
ITEM: BOX BOUNDS pp pp pp
0 1
0 1
0 1
ITEM: ATOMS id x y z E
0 0.637206 0.5 0.5 0.00125009
1 0.362794 0.5 0.5 0.00125009
ITEM: TIMESTEP
0.75
ITEM: NUMBER OF ATOMS
2
ITEM: BOX BOUNDS pp pp pp
0 1
0 1
0 1
ITEM: ATOMS id x y z E
0 0.636896 0.5 0.5 0.00125008
1 0.363104 0.5 0.5 0.00125008
ITEM: TIMESTEP
0.76
ITEM: NUMBER OF ATOMS
2
ITEM: BOX BOUNDS pp pp pp
0 1
0 1
0 1
ITEM: ATOMS id x y z E
0 0.636585 0.5 0.5 0.0012501
1 0.363416 0.5 0.5 0.0012501
ITEM: TIMESTEP
0.77
ITEM: NUMBER OF ATOMS
2
ITEM: BOX BOUNDS pp pp pp
0 1
0 1
0 1
ITEM: ATOMS id x y z E
0 0.636269 0.5 0.5 0.00125007
1 0.363731 0.5 0.5 0.00125007
ITEM: TIMESTEP
0.78
ITEM: NUMBER OF ATOMS
2
ITEM: BOX BOUNDS pp pp pp
0 1
0 1
0 1
ITEM: ATOMS id x y z E
0 0.635953 0.5 0.5 0.00125009
1 0.364047 0.5 0.5 0.00125009
ITEM: TIMESTEP
0.79
ITEM: NUMBER OF ATOMS
2
ITEM: BOX BOUNDS pp pp pp
0 1
0 1
0 1
ITEM: ATOMS id x y z E
0 0.635634 0.5 0.5 0.00125009
1 0.364366 0.5 0.5 0.00125009
ITEM: TIMESTEP
0.8
ITEM: NUMBER OF ATOMS
2
ITEM: BOX BOUNDS pp pp pp
0 1
0 1
0 1
ITEM: ATOMS id x y z E
0 0.635312 0.5 0.5 0.00125006
1 0.364687 0.5 0.5 0.00125006
ITEM: TIMESTEP
0.81
ITEM: NUMBER OF ATOMS
2
ITEM: BOX BOUNDS pp pp pp
0 1
0 1
0 1
ITEM: ATOMS id x y z E
0 0.63499 0.5 0.5 0.00125009
1 0.36501 0.5 0.5 0.00125009
ITEM: TIMESTEP
0.82
ITEM: NUMBER OF ATOMS
2
ITEM: BOX BOUNDS pp pp pp
0 1
0 1
0 1
ITEM: ATOMS id x y z E
0 0.634665 0.5 0.5 0.00125008
1 0.365335 0.5 0.5 0.00125008
ITEM: TIMESTEP
0.83
ITEM: NUMBER OF ATOMS
2
ITEM: BOX BOUNDS pp pp pp
0 1
0 1
0 1
ITEM: ATOMS id x y z E
0 0.634337 0.5 0.5 0.00125005
1 0.365663 0.5 0.5 0.00125005
ITEM: TIMESTEP
0.84
ITEM: NUMBER OF ATOMS
2
ITEM: BOX BOUNDS pp pp pp
0 1
0 1
0 1
ITEM: ATOMS id x y z E
0 0.634009 0.5 0.5 0.00125008
1 0.365991 0.5 0.5 0.00125008
ITEM: TIMESTEP
0.85
ITEM: NUMBER OF ATOMS
2
ITEM: BOX BOUNDS pp pp pp
0 1
0 1
0 1
ITEM: ATOMS id x y z E
0 0.633679 0.5 0.5 0.00125008
1 0.366322 0.5 0.5 0.00125008
ITEM: TIMESTEP
0.86
ITEM: NUMBER OF ATOMS
2
ITEM: BOX BOUNDS pp pp pp
0 1
0 1
0 1
ITEM: ATOMS id x y z E
0 0.633345 0.5 0.5 0.00125005
1 0.366655 0.5 0.5 0.00125005
ITEM: TIMESTEP
0.87
ITEM: NUMBER OF ATOMS
2
ITEM: BOX BOUNDS pp pp pp
0 1
0 1
0 1
ITEM: ATOMS id x y z E
0 0.633011 0.5 0.5 0.00125006
1 0.366988 0.5 0.5 0.00125006
ITEM: TIMESTEP
0.88
ITEM: NUMBER OF ATOMS
2
ITEM: BOX BOUNDS pp pp pp
0 1
0 1
0 1
ITEM: ATOMS id x y z E
0 0.632677 0.5 0.5 0.00125008
1 0.367324 0.5 0.5 0.00125008
ITEM: TIMESTEP
0.89
ITEM: NUMBER OF ATOMS
2
ITEM: BOX BOUNDS pp pp pp
0 1
0 1
0 1
ITEM: ATOMS id x y z E
0 0.632339 0.5 0.5 0.00125007
1 0.367661 0.5 0.5 0.00125007
ITEM: TIMESTEP
0.9
ITEM: NUMBER OF ATOMS
2
ITEM: BOX BOUNDS pp pp pp
0 1
0 1
0 1
ITEM: ATOMS id x y z E
0 0.631999 0.5 0.5 0.00125004
1 0.368 0.5 0.5 0.00125004
ITEM: TIMESTEP
0.91
ITEM: NUMBER OF ATOMS
2
ITEM: BOX BOUNDS pp pp pp
0 1
0 1
0 1
ITEM: ATOMS id x y z E
0 0.631659 0.5 0.5 0.00125005
1 0.36834 0.5 0.5 0.00125005
ITEM: TIMESTEP
0.92
ITEM: NUMBER OF ATOMS
2
ITEM: BOX BOUNDS pp pp pp
0 1
0 1
0 1
ITEM: ATOMS id x y z E
0 0.631319 0.5 0.5 0.00125007
1 0.368682 0.5 0.5 0.00125007
ITEM: TIMESTEP
0.93
ITEM: NUMBER OF ATOMS
2
ITEM: BOX BOUNDS pp pp pp
0 1
0 1
0 1
ITEM: ATOMS id x y z E
0 0.630977 0.5 0.5 0.00125006
1 0.369025 0.5 0.5 0.00125006
ITEM: TIMESTEP
0.94
ITEM: NUMBER OF ATOMS
2
ITEM: BOX BOUNDS pp pp pp
0 1
0 1
0 1
ITEM: ATOMS id x y z E
0 0.630631 0.5 0.5 0.00125005
1 0.369368 0.5 0.5 0.00125005
ITEM: TIMESTEP
0.95
ITEM: NUMBER OF ATOMS
2
ITEM: BOX BOUNDS pp pp pp
0 1
0 1
0 1
ITEM: ATOMS id x y z E
0 0.630285 0.5 0.5 0.00125003
1 0.369714 0.5 0.5 0.00125003
ITEM: TIMESTEP
0.96
ITEM: NUMBER OF ATOMS
2
ITEM: BOX BOUNDS pp pp pp
0 1
0 1
0 1
ITEM: ATOMS id x y z E
0 0.62994 0.5 0.5 0.00125003
1 0.370059 0.5 0.5 0.00125003
ITEM: TIMESTEP
0.97
ITEM: NUMBER OF ATOMS
2
ITEM: BOX BOUNDS pp pp pp
0 1
0 1
0 1
ITEM: ATOMS id x y z E
0 0.629594 0.5 0.5 0.00125005
1 0.370406 0.5 0.5 0.00125005
ITEM: TIMESTEP
0.98
ITEM: NUMBER OF ATOMS
2
ITEM: BOX BOUNDS pp pp pp
0 1
0 1
0 1
ITEM: ATOMS id x y z E
0 0.629248 0.5 0.5 0.00125006
1 0.370755 0.5 0.5 0.00125006
ITEM: TIMESTEP
0.99
ITEM: NUMBER OF ATOMS
2
ITEM: BOX BOUNDS pp pp pp
0 1
0 1
0 1
ITEM: ATOMS id x y z E
0 0.628899 0.5 0.5 0.00125005
1 0.371103 0.5 0.5 0.00125005
ITEM: TIMESTEP
1
ITEM: NUMBER OF ATOMS
2
ITEM: BOX BOUNDS pp pp pp
0 1
0 1
0 1
ITEM: ATOMS id x y z E
0 0.628547 0.5 0.5 0.00125004
1 0.371452 0.5 0.5 0.00125004
ITEM: TIMESTEP
1.01
ITEM: NUMBER OF ATOMS
2
ITEM: BOX BOUNDS pp pp pp
0 1
0 1
0 1
ITEM: ATOMS id x y z E
0 0.628195 0.5 0.5 0.00125003
1 0.371803 0.5 0.5 0.00125003
ITEM: TIMESTEP
1.02
ITEM: NUMBER OF ATOMS
2
ITEM: BOX BOUNDS pp pp pp
0 1
0 1
0 1
ITEM: ATOMS id x y z E
0 0.627843 0.5 0.5 0.00125001
1 0.372155 0.5 0.5 0.00125001
ITEM: TIMESTEP
1.03
ITEM: NUMBER OF ATOMS
2
ITEM: BOX BOUNDS pp pp pp
0 1
0 1
0 1
ITEM: ATOMS id x y z E
0 0.627492 0.5 0.5 0.00125001
1 0.372506 0.5 0.5 0.00125001
ITEM: TIMESTEP
1.04
ITEM: NUMBER OF ATOMS
2
ITEM: BOX BOUNDS pp pp pp
0 1
0 1
0 1
ITEM: ATOMS id x y z E
0 0.62714 0.5 0.5 0.00125001
1 0.372858 0.5 0.5 0.00125001
ITEM: TIMESTEP
1.05
ITEM: NUMBER OF ATOMS
2
ITEM: BOX BOUNDS pp pp pp
0 1
0 1
0 1
ITEM: ATOMS id x y z E
0 0.626788 0.5 0.5 0.00125002
1 0.37321 0.5 0.5 0.00125002
ITEM: TIMESTEP
1.06
ITEM: NUMBER OF ATOMS
2
ITEM: BOX BOUNDS pp pp pp
0 1
0 1
0 1
ITEM: ATOMS id x y z E
0 0.626437 0.5 0.5 0.00125002
1 0.373561 0.5 0.5 0.00125002
ITEM: TIMESTEP
1.07
ITEM: NUMBER OF ATOMS
2
ITEM: BOX BOUNDS pp pp pp
0 1
0 1
0 1
ITEM: ATOMS id x y z E
0 0.626085 0.5 0.5 0.00125002
1 0.373914 0.5 0.5 0.00125002
ITEM: TIMESTEP
1.08
ITEM: NUMBER OF ATOMS
2
ITEM: BOX BOUNDS pp pp pp
0 1
0 1
0 1
ITEM: ATOMS id x y z E
0 0.625733 0.5 0.5 0.00125002
1 0.374268 0.5 0.5 0.00125002
ITEM: TIMESTEP
1.09
ITEM: NUMBER OF ATOMS
2
ITEM: BOX BOUNDS pp pp pp
0 1
0 1
0 1
ITEM: ATOMS id x y z E
0 0.625382 0.5 0.5 0.00125002
1 0.374623 0.5 0.5 0.00125002
ITEM: TIMESTEP
1.1
ITEM: NUMBER OF ATOMS
2
ITEM: BOX BOUNDS pp pp pp
0 1
0 1
0 1
ITEM: ATOMS id x y z E
0 0.62503 0.5 0.5 0.00125002
1 0.374978 0.5 0.5 0.00125002
ITEM: TIMESTEP
1.11
ITEM: NUMBER OF ATOMS
2
ITEM: BOX BOUNDS pp pp pp
0 1
0 1
0 1
ITEM: ATOMS id x y z E
0 0.624678 0.5 0.5 0.00125001
1 0.375332 0.5 0.5 0.00125001
ITEM: TIMESTEP
1.12
ITEM: NUMBER OF ATOMS
2
ITEM: BOX BOUNDS pp pp pp
0 1
0 1
0 1
ITEM: ATOMS id x y z E
0 0.624327 0.5 0.5 0.00125001
1 0.375687 0.5 0.5 0.00125001
ITEM: TIMESTEP
1.13
ITEM: NUMBER OF ATOMS
2
ITEM: BOX BOUNDS pp pp pp
0 1
0 1
0 1
ITEM: ATOMS id x y z E
0 0.623975 0.5 0.5 0.00125001
1 0.376042 0.5 0.5 0.00125001
ITEM: TIMESTEP
1.14
ITEM: NUMBER OF ATOMS
2
ITEM: BOX BOUNDS pp pp pp
0 1
0 1
0 1
ITEM: ATOMS id x y z E
0 0.623623 0.5 0.5 0.00125
1 0.376395 0.5 0.5 0.00125
ITEM: TIMESTEP
1.15
ITEM: NUMBER OF ATOMS
2
ITEM: BOX BOUNDS pp pp pp
0 1
0 1
0 1
ITEM: ATOMS id x y z E
0 0.623272 0.5 0.5 0.00124999
1 0.376746 0.5 0.5 0.00124999
ITEM: TIMESTEP
1.16
ITEM: NUMBER OF ATOMS
2
ITEM: BOX BOUNDS pp pp pp
0 1
0 1
0 1
ITEM: ATOMS id x y z E
0 0.62292 0.5 0.5 0.00124998
1 0.377098 0.5 0.5 0.00124998
ITEM: TIMESTEP
1.17
ITEM: NUMBER OF ATOMS
2
ITEM: BOX BOUNDS pp pp pp
0 1
0 1
0 1
ITEM: ATOMS id x y z E
0 0.622568 0.5 0.5 0.00124998
1 0.37745 0.5 0.5 0.00124998
ITEM: TIMESTEP
1.18
ITEM: NUMBER OF ATOMS
2
ITEM: BOX BOUNDS pp pp pp
0 1
0 1
0 1
ITEM: ATOMS id x y z E
0 0.622217 0.5 0.5 0.00124997
1 0.377801 0.5 0.5 0.00124997
ITEM: TIMESTEP
1.19
ITEM: NUMBER OF ATOMS
2
ITEM: BOX BOUNDS pp pp pp
0 1
0 1
0 1
ITEM: ATOMS id x y z E
0 0.621865 0.5 0.5 0.00124998
1 0.378153 0.5 0.5 0.00124998
ITEM: TIMESTEP
1.2
ITEM: NUMBER OF ATOMS
2
ITEM: BOX BOUNDS pp pp pp
0 1
0 1
0 1
ITEM: ATOMS id x y z E
0 0.621513 0.5 0.5 0.00124999
1 0.378504 0.5 0.5 0.00124999
ITEM: TIMESTEP
1.21
ITEM: NUMBER OF ATOMS
2
ITEM: BOX BOUNDS pp pp pp
0 1
0 1
0 1
ITEM: ATOMS id x y z E
0 0.621162 0.5 0.5 0.00125
1 0.378853 0.5 0.5 0.00125
ITEM: TIMESTEP
1.22
ITEM: NUMBER OF ATOMS
2
ITEM: BOX BOUNDS pp pp pp
0 1
0 1
0 1
ITEM: ATOMS id x y z E
0 0.620811 0.5 0.5 0.00125
1 0.379202 0.5 0.5 0.00125
ITEM: TIMESTEP
1.23
ITEM: NUMBER OF ATOMS
2
ITEM: BOX BOUNDS pp pp pp
0 1
0 1
0 1
ITEM: ATOMS id x y z E
0 0.620465 0.5 0.5 0.00124999
1 0.37955 0.5 0.5 0.00124999
ITEM: TIMESTEP
1.24
ITEM: NUMBER OF ATOMS
2
ITEM: BOX BOUNDS pp pp pp
0 1
0 1
0 1
ITEM: ATOMS id x y z E
0 0.62012 0.5 0.5 0.00124997
1 0.379898 0.5 0.5 0.00124997
ITEM: TIMESTEP
1.25
ITEM: NUMBER OF ATOMS
2
ITEM: BOX BOUNDS pp pp pp
0 1
0 1
0 1
ITEM: ATOMS id x y z E
0 0.619774 0.5 0.5 0.00124996
1 0.380243 0.5 0.5 0.00124996
ITEM: TIMESTEP
1.26
ITEM: NUMBER OF ATOMS
2
ITEM: BOX BOUNDS pp pp pp
0 1
0 1
0 1
ITEM: ATOMS id x y z E
0 0.619428 0.5 0.5 0.00124997
1 0.380589 0.5 0.5 0.00124997
ITEM: TIMESTEP
1.27
ITEM: NUMBER OF ATOMS
2
ITEM: BOX BOUNDS pp pp pp
0 1
0 1
0 1
ITEM: ATOMS id x y z E
0 0.619083 0.5 0.5 0.00124998
1 0.380933 0.5 0.5 0.00124998
ITEM: TIMESTEP
1.28
ITEM: NUMBER OF ATOMS
2
ITEM: BOX BOUNDS pp pp pp
0 1
0 1
0 1
ITEM: ATOMS id x y z E
0 0.618739 0.5 0.5 0.00124998
1 0.381276 0.5 0.5 0.00124998
ITEM: TIMESTEP
1.29
ITEM: NUMBER OF ATOMS
2
ITEM: BOX BOUNDS pp pp pp
0 1
0 1
0 1
ITEM: ATOMS id x y z E
0 0.618399 0.5 0.5 0.00124996
1 0.381618 0.5 0.5 0.00124996
ITEM: TIMESTEP
1.3
ITEM: NUMBER OF ATOMS
2
ITEM: BOX BOUNDS pp pp pp
0 1
0 1
0 1
ITEM: ATOMS id x y z E
0 0.61806 0.5 0.5 0.00124995
1 0.381957 0.5 0.5 0.00124995
ITEM: TIMESTEP
1.31
ITEM: NUMBER OF ATOMS
2
ITEM: BOX BOUNDS pp pp pp
0 1
0 1
0 1
ITEM: ATOMS id x y z E
0 0.61772 0.5 0.5 0.00124997
1 0.382297 0.5 0.5 0.00124997
ITEM: TIMESTEP
1.32
ITEM: NUMBER OF ATOMS
2
ITEM: BOX BOUNDS pp pp pp
0 1
0 1
0 1
ITEM: ATOMS id x y z E
0 0.61738 0.5 0.5 0.00124999
1 0.382634 0.5 0.5 0.00124999
ITEM: TIMESTEP
1.33
ITEM: NUMBER OF ATOMS
2
ITEM: BOX BOUNDS pp pp pp
0 1
0 1
0 1
ITEM: ATOMS id x y z E
0 0.617047 0.5 0.5 0.00124996
1 0.38297 0.5 0.5 0.00124996
ITEM: TIMESTEP
1.34
ITEM: NUMBER OF ATOMS
2
ITEM: BOX BOUNDS pp pp pp
0 1
0 1
0 1
ITEM: ATOMS id x y z E
0 0.616713 0.5 0.5 0.00124994
1 0.383304 0.5 0.5 0.00124994
ITEM: TIMESTEP
1.35
ITEM: NUMBER OF ATOMS
2
ITEM: BOX BOUNDS pp pp pp
0 1
0 1
0 1
ITEM: ATOMS id x y z E
0 0.616379 0.5 0.5 0.00124996
1 0.383637 0.5 0.5 0.00124996
ITEM: TIMESTEP
1.36
ITEM: NUMBER OF ATOMS
2
ITEM: BOX BOUNDS pp pp pp
0 1
0 1
0 1
ITEM: ATOMS id x y z E
0 0.616048 0.5 0.5 0.00124996
1 0.383968 0.5 0.5 0.00124996
ITEM: TIMESTEP
1.37
ITEM: NUMBER OF ATOMS
2
ITEM: BOX BOUNDS pp pp pp
0 1
0 1
0 1
ITEM: ATOMS id x y z E
0 0.61572 0.5 0.5 0.00124994
1 0.384297 0.5 0.5 0.00124994
ITEM: TIMESTEP
1.38
ITEM: NUMBER OF ATOMS
2
ITEM: BOX BOUNDS pp pp pp
0 1
0 1
0 1
ITEM: ATOMS id x y z E
0 0.615392 0.5 0.5 0.00124995
1 0.384625 0.5 0.5 0.00124995
ITEM: TIMESTEP
1.39
ITEM: NUMBER OF ATOMS
2
ITEM: BOX BOUNDS pp pp pp
0 1
0 1
0 1
ITEM: ATOMS id x y z E
0 0.615066 0.5 0.5 0.00124996
1 0.38495 0.5 0.5 0.00124996
ITEM: TIMESTEP
1.4
ITEM: NUMBER OF ATOMS
2
ITEM: BOX BOUNDS pp pp pp
0 1
0 1
0 1
ITEM: ATOMS id x y z E
0 0.614744 0.5 0.5 0.00124993
1 0.385273 0.5 0.5 0.00124993
ITEM: TIMESTEP
1.41
ITEM: NUMBER OF ATOMS
2
ITEM: BOX BOUNDS pp pp pp
0 1
0 1
0 1
ITEM: ATOMS id x y z E
0 0.614422 0.5 0.5 0.00124995
1 0.385595 0.5 0.5 0.00124995
ITEM: TIMESTEP
1.42
ITEM: NUMBER OF ATOMS
2
ITEM: BOX BOUNDS pp pp pp
0 1
0 1
0 1
ITEM: ATOMS id x y z E
0 0.614102 0.5 0.5 0.00124995
1 0.385914 0.5 0.5 0.00124995
ITEM: TIMESTEP
1.43
ITEM: NUMBER OF ATOMS
2
ITEM: BOX BOUNDS pp pp pp
0 1
0 1
0 1
ITEM: ATOMS id x y z E
0 0.613786 0.5 0.5 0.00124992
1 0.386231 0.5 0.5 0.00124992
ITEM: TIMESTEP
1.44
ITEM: NUMBER OF ATOMS
2
ITEM: BOX BOUNDS pp pp pp
0 1
0 1
0 1
ITEM: ATOMS id x y z E
0 0.61347 0.5 0.5 0.00124995
1 0.386546 0.5 0.5 0.00124995
ITEM: TIMESTEP
1.45
ITEM: NUMBER OF ATOMS
2
ITEM: BOX BOUNDS pp pp pp
0 1
0 1
0 1
ITEM: ATOMS id x y z E
0 0.613158 0.5 0.5 0.00124994
1 0.386858 0.5 0.5 0.00124994
ITEM: TIMESTEP
1.46
ITEM: NUMBER OF ATOMS
2
ITEM: BOX BOUNDS pp pp pp
0 1
0 1
0 1
ITEM: ATOMS id x y z E
0 0.612848 0.5 0.5 0.00124993
1 0.387168 0.5 0.5 0.00124993
ITEM: TIMESTEP
1.47
ITEM: NUMBER OF ATOMS
2
ITEM: BOX BOUNDS pp pp pp
0 1
0 1
0 1
ITEM: ATOMS id x y z E
0 0.61254 0.5 0.5 0.00124995
1 0.387476 0.5 0.5 0.00124995
ITEM: TIMESTEP
1.48
ITEM: NUMBER OF ATOMS
2
ITEM: BOX BOUNDS pp pp pp
0 1
0 1
0 1
ITEM: ATOMS id x y z E
0 0.612236 0.5 0.5 0.00124992
1 0.387781 0.5 0.5 0.00124992
ITEM: TIMESTEP
1.49
ITEM: NUMBER OF ATOMS
2
ITEM: BOX BOUNDS pp pp pp
0 1
0 1
0 1
ITEM: ATOMS id x y z E
0 0.611932 0.5 0.5 0.00124995
1 0.388084 0.5 0.5 0.00124995
ITEM: TIMESTEP
1.5
ITEM: NUMBER OF ATOMS
2
ITEM: BOX BOUNDS pp pp pp
0 1
0 1
0 1
ITEM: ATOMS id x y z E
0 0.611633 0.5 0.5 0.00124992
1 0.388384 0.5 0.5 0.00124992
ITEM: TIMESTEP
1.51
ITEM: NUMBER OF ATOMS
2
ITEM: BOX BOUNDS pp pp pp
0 1
0 1
0 1
ITEM: ATOMS id x y z E
0 0.611335 0.5 0.5 0.00124994
1 0.388681 0.5 0.5 0.00124994
ITEM: TIMESTEP
1.52
ITEM: NUMBER OF ATOMS
2
ITEM: BOX BOUNDS pp pp pp
0 1
0 1
0 1
ITEM: ATOMS id x y z E
0 0.611041 0.5 0.5 0.00124993
1 0.388976 0.5 0.5 0.00124993
ITEM: TIMESTEP
1.53
ITEM: NUMBER OF ATOMS
2
ITEM: BOX BOUNDS pp pp pp
0 1
0 1
0 1
ITEM: ATOMS id x y z E
0 0.610749 0.5 0.5 0.00124993
1 0.389268 0.5 0.5 0.00124993
ITEM: TIMESTEP
1.54
ITEM: NUMBER OF ATOMS
2
ITEM: BOX BOUNDS pp pp pp
0 1
0 1
0 1
ITEM: ATOMS id x y z E
0 0.61046 0.5 0.5 0.00124993
1 0.389557 0.5 0.5 0.00124993
ITEM: TIMESTEP
1.55
ITEM: NUMBER OF ATOMS
2
ITEM: BOX BOUNDS pp pp pp
0 1
0 1
0 1
ITEM: ATOMS id x y z E
0 0.610174 0.5 0.5 0.00124993
1 0.389843 0.5 0.5 0.00124993
ITEM: TIMESTEP
1.56
ITEM: NUMBER OF ATOMS
2
ITEM: BOX BOUNDS pp pp pp
0 1
0 1
0 1
ITEM: ATOMS id x y z E
0 0.609891 0.5 0.5 0.00124993
1 0.390126 0.5 0.5 0.00124993
ITEM: TIMESTEP
1.57
ITEM: NUMBER OF ATOMS
2
ITEM: BOX BOUNDS pp pp pp
0 1
0 1
0 1
ITEM: ATOMS id x y z E
0 0.609611 0.5 0.5 0.00124993
1 0.390406 0.5 0.5 0.00124993
ITEM: TIMESTEP
1.58
ITEM: NUMBER OF ATOMS
2
ITEM: BOX BOUNDS pp pp pp
0 1
0 1
0 1
ITEM: ATOMS id x y z E
0 0.609334 0.5 0.5 0.00124992
1 0.390683 0.5 0.5 0.00124992
ITEM: TIMESTEP
1.59
ITEM: NUMBER OF ATOMS
2
ITEM: BOX BOUNDS pp pp pp
0 1
0 1
0 1
ITEM: ATOMS id x y z E
0 0.60906 0.5 0.5 0.00124993
1 0.390957 0.5 0.5 0.00124993
ITEM: TIMESTEP
1.6
ITEM: NUMBER OF ATOMS
2
ITEM: BOX BOUNDS pp pp pp
0 1
0 1
0 1
ITEM: ATOMS id x y z E
0 0.608789 0.5 0.5 0.00124991
1 0.391227 0.5 0.5 0.00124991
ITEM: TIMESTEP
1.61
ITEM: NUMBER OF ATOMS
2
ITEM: BOX BOUNDS pp pp pp
0 1
0 1
0 1
ITEM: ATOMS id x y z E
0 0.608521 0.5 0.5 0.00124994
1 0.391495 0.5 0.5 0.00124994
ITEM: TIMESTEP
1.62
ITEM: NUMBER OF ATOMS
2
ITEM: BOX BOUNDS pp pp pp
0 1
0 1
0 1
ITEM: ATOMS id x y z E
0 0.608258 0.5 0.5 0.00124991
1 0.391759 0.5 0.5 0.00124991
ITEM: TIMESTEP
1.63
ITEM: NUMBER OF ATOMS
2
ITEM: BOX BOUNDS pp pp pp
0 1
0 1
0 1
ITEM: ATOMS id x y z E
0 0.607996 0.5 0.5 0.00124994
1 0.392019 0.5 0.5 0.00124994
ITEM: TIMESTEP
1.64
ITEM: NUMBER OF ATOMS
2
ITEM: BOX BOUNDS pp pp pp
0 1
0 1
0 1
ITEM: ATOMS id x y z E
0 0.60774 0.5 0.5 0.00124991
1 0.392277 0.5 0.5 0.00124991
ITEM: TIMESTEP
1.65
ITEM: NUMBER OF ATOMS
2
ITEM: BOX BOUNDS pp pp pp
0 1
0 1
0 1
ITEM: ATOMS id x y z E
0 0.607485 0.5 0.5 0.00124993
1 0.392531 0.5 0.5 0.00124993
ITEM: TIMESTEP
1.66
ITEM: NUMBER OF ATOMS
2
ITEM: BOX BOUNDS pp pp pp
0 1
0 1
0 1
ITEM: ATOMS id x y z E
0 0.607235 0.5 0.5 0.00124993
1 0.392781 0.5 0.5 0.00124993
ITEM: TIMESTEP
1.67
ITEM: NUMBER OF ATOMS
2
ITEM: BOX BOUNDS pp pp pp
0 1
0 1
0 1
ITEM: ATOMS id x y z E
0 0.606989 0.5 0.5 0.00124991
1 0.393028 0.5 0.5 0.00124991
ITEM: TIMESTEP
1.68
ITEM: NUMBER OF ATOMS
2
ITEM: BOX BOUNDS pp pp pp
0 1
0 1
0 1
ITEM: ATOMS id x y z E
0 0.606744 0.5 0.5 0.00124995
1 0.393271 0.5 0.5 0.00124995
ITEM: TIMESTEP
1.69
ITEM: NUMBER OF ATOMS
2
ITEM: BOX BOUNDS pp pp pp
0 1
0 1
0 1
ITEM: ATOMS id x y z E
0 0.606506 0.5 0.5 0.00124991
1 0.393511 0.5 0.5 0.00124991
ITEM: TIMESTEP
1.7
ITEM: NUMBER OF ATOMS
2
ITEM: BOX BOUNDS pp pp pp
0 1
0 1
0 1
ITEM: ATOMS id x y z E
0 0.606269 0.5 0.5 0.00124993
1 0.393747 0.5 0.5 0.00124993
ITEM: TIMESTEP
1.71
ITEM: NUMBER OF ATOMS
2
ITEM: BOX BOUNDS pp pp pp
0 1
0 1
0 1
ITEM: ATOMS id x y z E
0 0.606037 0.5 0.5 0.00124993
1 0.393979 0.5 0.5 0.00124993
ITEM: TIMESTEP
1.72
ITEM: NUMBER OF ATOMS
2
ITEM: BOX BOUNDS pp pp pp
0 1
0 1
0 1
ITEM: ATOMS id x y z E
0 0.605809 0.5 0.5 0.0012499
1 0.394207 0.5 0.5 0.0012499
ITEM: TIMESTEP
1.73
ITEM: NUMBER OF ATOMS
2
ITEM: BOX BOUNDS pp pp pp
0 1
0 1
0 1
ITEM: ATOMS id x y z E
0 0.605584 0.5 0.5 0.00124993
1 0.394432 0.5 0.5 0.00124993
ITEM: TIMESTEP
1.74
ITEM: NUMBER OF ATOMS
2
ITEM: BOX BOUNDS pp pp pp
0 1
0 1
0 1
ITEM: ATOMS id x y z E
0 0.605364 0.5 0.5 0.00124993
1 0.394653 0.5 0.5 0.00124993
ITEM: TIMESTEP
1.75
ITEM: NUMBER OF ATOMS
2
ITEM: BOX BOUNDS pp pp pp
0 1
0 1
0 1
ITEM: ATOMS id x y z E
0 0.605147 0.5 0.5 0.00124991
1 0.394869 0.5 0.5 0.00124991
ITEM: TIMESTEP
1.76
ITEM: NUMBER OF ATOMS
2
ITEM: BOX BOUNDS pp pp pp
0 1
0 1
0 1
ITEM: ATOMS id x y z E
0 0.604934 0.5 0.5 0.00124993
1 0.395082 0.5 0.5 0.00124993
ITEM: TIMESTEP
1.77
ITEM: NUMBER OF ATOMS
2
ITEM: BOX BOUNDS pp pp pp
0 1
0 1
0 1
ITEM: ATOMS id x y z E
0 0.604725 0.5 0.5 0.00124993
1 0.395291 0.5 0.5 0.00124993
ITEM: TIMESTEP
1.78
ITEM: NUMBER OF ATOMS
2
ITEM: BOX BOUNDS pp pp pp
0 1
0 1
0 1
ITEM: ATOMS id x y z E
0 0.604521 0.5 0.5 0.00124991
1 0.395495 0.5 0.5 0.00124991
ITEM: TIMESTEP
1.79
ITEM: NUMBER OF ATOMS
2
ITEM: BOX BOUNDS pp pp pp
0 1
0 1
0 1
ITEM: ATOMS id x y z E
0 0.60432 0.5 0.5 0.00124993
1 0.395696 0.5 0.5 0.00124993
ITEM: TIMESTEP
1.8
ITEM: NUMBER OF ATOMS
2
ITEM: BOX BOUNDS pp pp pp
0 1
0 1
0 1
ITEM: ATOMS id x y z E
0 0.604124 0.5 0.5 0.00124994
1 0.395892 0.5 0.5 0.00124994
ITEM: TIMESTEP
1.81
ITEM: NUMBER OF ATOMS
2
ITEM: BOX BOUNDS pp pp pp
0 1
0 1
0 1
ITEM: ATOMS id x y z E
0 0.603932 0.5 0.5 0.00124991
1 0.396084 0.5 0.5 0.00124991
ITEM: TIMESTEP
1.82
ITEM: NUMBER OF ATOMS
2
ITEM: BOX BOUNDS pp pp pp
0 1
0 1
0 1