ITEM: TIMESTEP
0
ITEM: NUMBER OF ATOMS
500
ITEM: BOX BOUNDS pp pp pp
0 1
0 1
0 1
ITEM: ATOMS id x y z E
0 0.0499998 0.0500001 0.0499999 2037.52
1 0.0499999 0.15 0.15 2037.52
2 0.15 0.0500001 0.15 2037.52
3 0.15 0.15 0.0499999 2037.52
4 0.0499999 0.05 0.25 2037.52
5 0.0500001 0.15 0.35 2037.52
6 0.15 0.05 0.35 2037.52
7 0.15 0.15 0.25 2037.52
8 0.0499999 0.05 0.45 2037.52
9 0.0500001 0.15 0.55 2037.52
10 0.15 0.0500001 0.55 2037.52
11 0.15 0.15 0.45 2037.52
12 0.0499999 0.0500001 0.65 2037.52
13 0.05 0.15 0.75 2037.52
14 0.15 0.05 0.75 2037.52
15 0.15 0.15 0.65 2037.52
16 0.0499999 0.0500001 0.85 2037.52
17 0.0500002 0.15 0.95 2037.52
18 0.15 0.0500001 0.95 2037.52
19 0.15 0.15 0.85 2037.52
20 0.0499999 0.25 0.0500001 2037.52
21 0.0500001 0.35 0.15 2037.52
22 0.15 0.25 0.15 2037.52
23 0.15 0.35 0.0499998 2037.52
24 0.0500001 0.25 0.25 2037.52
25 0.05 0.35 0.35 2037.52
26 0.15 0.25 0.35 2037.52
27 0.15 0.35 0.25 2037.52
28 0.0499998 0.25 0.45 2037.52
29 0.0500001 0.35 0.55 2037.52
30 0.15 0.25 0.55 2037.52
31 0.15 0.35 0.45 2037.52
32 0.05 0.25 0.65 2037.52
33 0.0499998 0.35 0.75 2037.52
34 0.15 0.25 0.75 2037.52
35 0.15 0.35 0.65 2037.52
36 0.0500001 0.25 0.85 2037.52
37 0.05 0.35 0.95 2037.52
38 0.15 0.25 0.95 2037.52
39 0.15 0.35 0.85 2037.52
40 0.05 0.45 0.0499999 2037.52
41 0.05 0.55 0.15 2037.52
42 0.15 0.45 0.15 2037.52
43 0.15 0.55 0.0499999 2037.52
44 0.05 0.45 0.25 2037.52
45 0.05 0.55 0.35 2037.52
46 0.15 0.45 0.35 2037.52
47 0.15 0.55 0.25 2037.52
48 0.05 0.45 0.45 2037.52
49 0.0499999 0.55 0.55 2037.52
50 0.15 0.45 0.55 2037.52
51 0.15 0.55 0.45 2037.52
52 0.05 0.45 0.65 2037.52
53 0.05 0.55 0.75 2037.52
54 0.15 0.45 0.75 2037.52
55 0.15 0.55 0.65 2037.52
56 0.0499999 0.45 0.85 2037.52
57 0.05 0.55 0.95 2037.52
58 0.15 0.45 0.95 2037.52
59 0.15 0.55 0.85 2037.52
60 0.05 0.65 0.0500001 2037.52
61 0.05 0.75 0.15 2037.52
62 0.15 0.65 0.15 2037.52
63 0.15 0.75 0.0499999 2037.52
64 0.0500001 0.65 0.25 2037.52
65 0.0499999 0.75 0.35 2037.52
66 0.15 0.65 0.35 2037.52
67 0.15 0.75 0.25 2037.52
68 0.0499999 0.65 0.45 2037.52
69 0.0499999 0.75 0.55 2037.52
70 0.15 0.65 0.55 2037.52
71 0.15 0.75 0.45 2037.52
72 0.05 0.65 0.65 2037.52
73 0.0499999 0.75 0.75 2037.52
74 0.15 0.65 0.75 2037.52
75 0.15 0.75 0.65 2037.52
76 0.05 0.65 0.85 2037.52
77 0.0499999 0.75 0.95 2037.52
78 0.15 0.65 0.95 2037.52
79 0.15 0.75 0.85 2037.52
80 0.0500002 0.85 0.0500001 2037.52
81 0.0500001 0.95 0.15 2037.52
82 0.15 0.85 0.15 2037.52
83 0.15 0.95 0.05 2037.52
84 0.05 0.85 0.25 2037.52
85 0.0500001 0.95 0.35 2037.52
86 0.15 0.85 0.35 2037.52
87 0.15 0.95 0.25 2037.52
88 0.0499998 0.85 0.45 2037.52
89 0.0499998 0.95 0.55 2037.52
90 0.15 0.85 0.55 2037.52
91 0.15 0.95 0.45 2037.52
92 0.0500001 0.85 0.65 2037.52
93 0.0499999 0.95 0.75 2037.52
94 0.15 0.85 0.75 2037.52
95 0.15 0.95 0.65 2037.52
96 0.0499999 0.85 0.85 2037.52
97 0.0499999 0.95 0.95 2037.52
98 0.15 0.85 0.95 2037.52
99 0.15 0.95 0.85 2037.52
100 0.25 0.0500001 0.0500001 2037.52
101 0.25 0.15 0.15 2037.52
102 0.35 0.05 0.15 2037.52
103 0.35 0.15 0.0500001 2037.52
104 0.25 0.0500002 0.25 2037.52
105 0.25 0.15 0.35 2037.52
106 0.35 0.05 0.35 2037.52
107 0.35 0.15 0.25 2037.52
108 0.25 0.0499999 0.45 2037.52
109 0.25 0.15 0.55 2037.52
110 0.35 0.0499999 0.55 2037.52
111 0.35 0.15 0.45 2037.52
112 0.25 0.0499999 0.65 2037.52
113 0.25 0.15 0.75 2037.52
114 0.35 0.0499999 0.75 2037.52
115 0.35 0.15 0.65 2037.52
116 0.25 0.0499999 0.85 2037.52
117 0.25 0.15 0.95 2037.52
118 0.35 0.05 0.95 2037.52
119 0.35 0.15 0.85 2037.52
120 0.25 0.25 0.0499999 2037.52
121 0.25 0.35 0.15 2037.52
122 0.35 0.25 0.15 2037.52
123 0.35 0.35 0.0499999 2037.52
124 0.25 0.25 0.25 2037.52
125 0.25 0.35 0.35 2037.52
126 0.35 0.25 0.35 2037.52
127 0.35 0.35 0.25 2037.52
128 0.25 0.25 0.45 2037.52
129 0.25 0.35 0.55 2037.52
130 0.35 0.25 0.55 2037.52
131 0.35 0.35 0.45 2037.52
132 0.25 0.25 0.65 2037.52
133 0.25 0.35 0.75 2037.52
134 0.35 0.25 0.75 2037.52
135 0.35 0.35 0.65 2037.52
136 0.25 0.25 0.85 2037.52
137 0.25 0.35 0.95 2037.52
138 0.35 0.25 0.95 2037.52
139 0.35 0.35 0.85 2037.52
140 0.25 0.45 0.0500001 2037.52
141 0.25 0.55 0.15 2037.52
142 0.35 0.45 0.15 2037.52
143 0.35 0.55 0.05 2037.52
144 0.25 0.45 0.25 2037.52
145 0.25 0.55 0.35 2037.52
146 0.35 0.45 0.35 2037.52
147 0.35 0.55 0.25 2037.52
148 0.25 0.45 0.45 2037.52
149 0.25 0.55 0.55 2037.52
150 0.35 0.45 0.55 2037.52
151 0.35 0.55 0.45 2037.52
152 0.25 0.45 0.65 2037.52
153 0.25 0.55 0.75 2037.52
154 0.35 0.45 0.75 2037.52
155 0.35 0.55 0.65 2037.52
156 0.25 0.45 0.85 2037.52
157 0.25 0.55 0.95 2037.52
158 0.35 0.45 0.95 2037.52
159 0.35 0.55 0.85 2037.52
160 0.25 0.65 0.0499999 2037.52
161 0.25 0.75 0.15 2037.52
162 0.35 0.65 0.15 2037.52
163 0.35 0.75 0.05 2037.52
164 0.25 0.65 0.25 2037.52
165 0.25 0.75 0.35 2037.52
166 0.35 0.65 0.35 2037.52
167 0.35 0.75 0.25 2037.52
168 0.25 0.65 0.45 2037.52
169 0.25 0.75 0.55 2037.52
170 0.35 0.65 0.55 2037.52
171 0.35 0.75 0.45 2037.52
172 0.25 0.65 0.65 2037.52
173 0.25 0.75 0.75 2037.52
174 0.35 0.65 0.75 2037.52
175 0.35 0.75 0.65 2037.52
176 0.25 0.65 0.85 2037.52
177 0.25 0.75 0.95 2037.52
178 0.35 0.65 0.95 2037.52
179 0.35 0.75 0.85 2037.52
180 0.25 0.85 0.05 2037.52
181 0.25 0.95 0.15 2037.52
182 0.35 0.85 0.15 2037.52
183 0.35 0.95 0.0499999 2037.52
184 0.25 0.85 0.25 2037.52
185 0.25 0.95 0.35 2037.52
186 0.35 0.85 0.35 2037.52
187 0.35 0.95 0.25 2037.52
188 0.25 0.85 0.45 2037.52
189 0.25 0.95 0.55 2037.52
190 0.35 0.85 0.55 2037.52
191 0.35 0.95 0.45 2037.52
192 0.25 0.85 0.65 2037.52
193 0.25 0.95 0.75 2037.52
194 0.35 0.85 0.75 2037.52
195 0.35 0.95 0.65 2037.52
196 0.25 0.85 0.85 2037.52
197 0.25 0.95 0.95 2037.52
198 0.35 0.85 0.95 2037.52
199 0.35 0.95 0.85 2037.52
200 0.45 0.05 0.0499999 2037.52
201 0.45 0.15 0.15 2037.52
202 0.55 0.0499999 0.15 2037.52
203 0.55 0.15 0.0500002 2037.52
204 0.45 0.0500001 0.25 2037.52
205 0.45 0.15 0.35 2037.52
206 0.55 0.0500001 0.35 2037.52
207 0.55 0.15 0.25 2037.52
208 0.45 0.05 0.45 2037.52
209 0.45 0.15 0.55 2037.52
210 0.55 0.0499999 0.55 2037.52
211 0.55 0.15 0.45 2037.52
212 0.45 0.0500001 0.65 2037.52
213 0.45 0.15 0.75 2037.52
214 0.55 0.0500001 0.75 2037.52
215 0.55 0.15 0.65 2037.52
216 0.45 0.0499999 0.85 2037.52
217 0.45 0.15 0.95 2037.52
218 0.55 0.05 0.95 2037.52
219 0.55 0.15 0.85 2037.52
220 0.45 0.25 0.0499999 2037.52
221 0.45 0.35 0.15 2037.52
222 0.55 0.25 0.15 2037.52
223 0.55 0.35 0.05 2037.52
224 0.45 0.25 0.25 2037.52
225 0.45 0.35 0.35 2037.52
226 0.55 0.25 0.35 2037.52
227 0.55 0.35 0.25 2037.52
228 0.45 0.25 0.45 2037.52
229 0.45 0.35 0.55 2037.52
230 0.55 0.25 0.55 2037.52
231 0.55 0.35 0.45 2037.52
232 0.45 0.25 0.65 2037.52
233 0.45 0.35 0.75 2037.52
234 0.55 0.25 0.75 2037.52
235 0.55 0.35 0.65 2037.52
236 0.45 0.25 0.85 2037.52
237 0.45 0.35 0.95 2037.52
238 0.55 0.25 0.95 2037.52
239 0.55 0.35 0.85 2037.52
240 0.45 0.45 0.05 2037.52
241 0.45 0.55 0.15 2037.52
242 0.55 0.45 0.15 2037.52
243 0.55 0.55 0.05 2037.52
244 0.45 0.45 0.25 2037.52
245 0.45 0.55 0.35 2037.52
246 0.55 0.45 0.35 2037.52
247 0.55 0.55 0.25 2037.52
248 0.45 0.45 0.45 2037.52
249 0.45 0.55 0.55 2037.52
250 0.55 0.45 0.55 2037.52
251 0.55 0.55 0.45 2037.52
252 0.45 0.45 0.65 2037.52
253 0.45 0.55 0.75 2037.52
254 0.55 0.45 0.75 2037.52
255 0.55 0.55 0.65 2037.52
256 0.45 0.45 0.85 2037.52
257 0.45 0.55 0.95 2037.52
258 0.55 0.45 0.95 2037.52
259 0.55 0.55 0.85 2037.52
260 0.45 0.65 0.0500001 2037.52
261 0.45 0.75 0.15 2037.52
262 0.55 0.65 0.15 2037.52
263 0.55 0.75 0.05 2037.52
264 0.45 0.65 0.25 2037.52
265 0.45 0.75 0.35 2037.52
266 0.55 0.65 0.35 2037.52
267 0.55 0.75 0.25 2037.52
268 0.45 0.65 0.45 2037.52
269 0.45 0.75 0.55 2037.52
270 0.55 0.65 0.55 2037.52
271 0.55 0.75 0.45 2037.52
272 0.45 0.65 0.65 2037.52
273 0.45 0.75 0.75 2037.52
274 0.55 0.65 0.75 2037.52
275 0.55 0.75 0.65 2037.52
276 0.45 0.65 0.85 2037.52
277 0.45 0.75 0.95 2037.52
278 0.55 0.65 0.95 2037.52
279 0.55 0.75 0.85 2037.52
280 0.45 0.85 0.0499999 2037.52
281 0.45 0.95 0.15 2037.52
282 0.55 0.85 0.15 2037.52
283 0.55 0.95 0.0499999 2037.52
284 0.45 0.85 0.25 2037.52
285 0.45 0.95 0.35 2037.52
286 0.55 0.85 0.35 2037.52
287 0.55 0.95 0.25 2037.52
288 0.45 0.85 0.45 2037.52
289 0.45 0.95 0.55 2037.52
290 0.55 0.85 0.55 2037.52
291 0.55 0.95 0.45 2037.52
292 0.45 0.85 0.65 2037.52
293 0.45 0.95 0.75 2037.52
294 0.55 0.85 0.75 2037.52
295 0.55 0.95 0.65 2037.52
296 0.45 0.85 0.85 2037.52
297 0.45 0.95 0.95 2037.52
298 0.55 0.85 0.95 2037.52
299 0.55 0.95 0.85 2037.52
300 0.65 0.0499999 0.05 2037.52
301 0.65 0.15 0.15 2037.52
302 0.75 0.0499999 0.15 2037.52
303 0.75 0.15 0.05 2037.52
304 0.65 0.05 0.25 2037.52
305 0.65 0.15 0.35 2037.52
306 0.75 0.0499999 0.35 2037.52
307 0.75 0.15 0.25 2037.52
308 0.65 0.0499999 0.45 2037.52
309 0.65 0.15 0.55 2037.52
310 0.75 0.05 0.55 2037.52
311 0.75 0.15 0.45 2037.52
312 0.65 0.0499999 0.65 2037.52
313 0.65 0.15 0.75 2037.52
314 0.75 0.05 0.75 2037.52
315 0.75 0.15 0.65 2037.52
316 0.65 0.0500001 0.85 2037.52
317 0.65 0.15 0.95 2037.52
318 0.75 0.05 0.95 2037.52
319 0.75 0.15 0.85 2037.52
320 0.65 0.25 0.05 2037.52
321 0.65 0.35 0.15 2037.52
322 0.75 0.25 0.15 2037.52
323 0.75 0.35 0.0499999 2037.52
324 0.65 0.25 0.25 2037.52
325 0.65 0.35 0.35 2037.52
326 0.75 0.25 0.35 2037.52
327 0.75 0.35 0.25 2037.52
328 0.65 0.25 0.45 2037.52
329 0.65 0.35 0.55 2037.52
330 0.75 0.25 0.55 2037.52
331 0.75 0.35 0.45 2037.52
332 0.65 0.25 0.65 2037.52
333 0.65 0.35 0.75 2037.52
334 0.75 0.25 0.75 2037.52
335 0.75 0.35 0.65 2037.52
336 0.65 0.25 0.85 2037.52
337 0.65 0.35 0.95 2037.52
338 0.75 0.25 0.95 2037.52
339 0.75 0.35 0.85 2037.52
340 0.65 0.45 0.05 2037.52
341 0.65 0.55 0.15 2037.52
342 0.75 0.45 0.15 2037.52
343 0.75 0.55 0.0499999 2037.52
344 0.65 0.45 0.25 2037.52
345 0.65 0.55 0.35 2037.52
346 0.75 0.45 0.35 2037.52
347 0.75 0.55 0.25 2037.52
348 0.65 0.45 0.45 2037.52
349 0.65 0.55 0.55 2037.52
350 0.75 0.45 0.55 2037.52
351 0.75 0.55 0.45 2037.52
352 0.65 0.45 0.65 2037.52
353 0.65 0.55 0.75 2037.52
354 0.75 0.45 0.75 2037.52
355 0.75 0.55 0.65 2037.52
356 0.65 0.45 0.85 2037.52
357 0.65 0.55 0.95 2037.52
358 0.75 0.45 0.95 2037.52
359 0.75 0.55 0.85 2037.52
360 0.65 0.65 0.0499999 2037.52
361 0.65 0.75 0.15 2037.52
362 0.75 0.65 0.15 2037.52
363 0.75 0.75 0.0499999 2037.52
364 0.65 0.65 0.25 2037.52
365 0.65 0.75 0.35 2037.52
366 0.75 0.65 0.35 2037.52
367 0.75 0.75 0.25 2037.52
368 0.65 0.65 0.45 2037.52
369 0.65 0.75 0.55 2037.52
370 0.75 0.65 0.55 2037.52
371 0.75 0.75 0.45 2037.52
372 0.65 0.65 0.65 2037.52
373 0.65 0.75 0.75 2037.52
374 0.75 0.65 0.75 2037.52
375 0.75 0.75 0.65 2037.52
376 0.65 0.65 0.85 2037.52
377 0.65 0.75 0.95 2037.52
378 0.75 0.65 0.95 2037.52
379 0.75 0.75 0.85 2037.52
380 0.65 0.85 0.0499999 2037.52
381 0.65 0.95 0.15 2037.52
382 0.75 0.85 0.15 2037.52
383 0.75 0.95 0.05 2037.52
384 0.65 0.85 0.25 2037.52
385 0.65 0.95 0.35 2037.52
386 0.75 0.85 0.35 2037.52
387 0.75 0.95 0.25 2037.52
388 0.65 0.85 0.45 2037.52
389 0.65 0.95 0.55 2037.52
390 0.75 0.85 0.55 2037.52
391 0.75 0.95 0.45 2037.52
392 0.65 0.85 0.65 2037.52
393 0.65 0.95 0.75 2037.52
394 0.75 0.85 0.75 2037.52
395 0.75 0.95 0.65 2037.52
396 0.65 0.85 0.85 2037.52
397 0.65 0.95 0.95 2037.52
398 0.75 0.85 0.95 2037.52
399 0.75 0.95 0.85 2037.52
400 0.85 0.0499999 0.0499999 2037.52
401 0.85 0.15 0.15 2037.52
402 0.95 0.0500001 0.15 2037.52
403 0.95 0.15 0.0500001 2037.52
404 0.85 0.0500001 0.25 2037.52
405 0.85 0.15 0.35 2037.52
406 0.95 0.0500001 0.35 2037.52
407 0.95 0.15 0.25 2037.52
408 0.85 0.0500001 0.45 2037.52
409 0.85 0.15 0.55 2037.52
410 0.95 0.0500001 0.55 2037.52
411 0.95 0.15 0.45 2037.52
412 0.85 0.0499998 0.65 2037.52
413 0.85 0.15 0.75 2037.52
414 0.95 0.05 0.75 2037.52
415 0.95 0.15 0.65 2037.52
416 0.85 0.0499999 0.85 2037.52
417 0.85 0.15 0.95 2037.52
418 0.95 0.0500001 0.95 2037.52
419 0.95 0.15 0.85 2037.52
420 0.85 0.25 0.05 2037.52
421 0.85 0.35 0.15 2037.52
422 0.95 0.25 0.15 2037.52
423 0.95 0.35 0.0500001 2037.52
424 0.85 0.25 0.25 2037.52
425 0.85 0.35 0.35 2037.52
426 0.95 0.25 0.35 2037.52
427 0.95 0.35 0.25 2037.52
428 0.85 0.25 0.45 2037.52
429 0.85 0.35 0.55 2037.52
430 0.95 0.25 0.55 2037.52
431 0.95 0.35 0.45 2037.52
432 0.85 0.25 0.65 2037.52
433 0.85 0.35 0.75 2037.52
434 0.95 0.25 0.75 2037.52
435 0.95 0.35 0.65 2037.52
436 0.85 0.25 0.85 2037.52
437 0.85 0.35 0.95 2037.52
438 0.95 0.25 0.95 2037.52
439 0.95 0.35 0.85 2037.52
440 0.85 0.45 0.0500001 2037.52
441 0.85 0.55 0.15 2037.52
442 0.95 0.45 0.15 2037.52
443 0.95 0.55 0.0500001 2037.52
444 0.85 0.45 0.25 2037.52
445 0.85 0.55 0.35 2037.52
446 0.95 0.45 0.35 2037.52
447 0.95 0.55 0.25 2037.52
448 0.85 0.45 0.45 2037.52
449 0.85 0.55 0.55 2037.52
450 0.95 0.45 0.55 2037.52
451 0.95 0.55 0.45 2037.52
452 0.85 0.45 0.65 2037.52
453 0.85 0.55 0.75 2037.52
454 0.95 0.45 0.75 2037.52
455 0.95 0.55 0.65 2037.52
456 0.85 0.45 0.85 2037.52
457 0.85 0.55 0.95 2037.52
458 0.95 0.45 0.95 2037.52
459 0.95 0.55 0.85 2037.52
460 0.85 0.65 0.05 2037.52
461 0.85 0.75 0.15 2037.52
462 0.95 0.65 0.15 2037.52
463 0.95 0.75 0.05 2037.52
464 0.85 0.65 0.25 2037.52
465 0.85 0.75 0.35 2037.52
466 0.95 0.65 0.35 2037.52
467 0.95 0.75 0.25 2037.52
468 0.85 0.65 0.45 2037.52
469 0.85 0.75 0.55 2037.52
470 0.95 0.65 0.55 2037.52
471 0.95 0.75 0.45 2037.52
472 0.85 0.65 0.65 2037.52
473 0.85 0.75 0.75 2037.52
474 0.95 0.65 0.75 2037.52
475 0.95 0.75 0.65 2037.52
476 0.85 0.65 0.85 2037.52
477 0.85 0.75 0.95 2037.52
478 0.95 0.65 0.95 2037.52
479 0.95 0.75 0.85 2037.52
480 0.85 0.85 0.05 2037.52
481 0.85 0.95 0.15 2037.52
482 0.95 0.85 0.15 2037.52
483 0.95 0.95 0.0500002 2037.52
484 0.85 0.85 0.25 2037.52
485 0.85 0.95 0.35 2037.52
486 0.95 0.85 0.35 2037.52
487 0.95 0.95 0.25 2037.52
488 0.85 0.85 0.45 2037.52
489 0.85 0.95 0.55 2037.52
490 0.95 0.85 0.55 2037.52
491 0.95 0.95 0.45 2037.52
492 0.85 0.85 0.65 2037.52
493 0.85 0.95 0.75 2037.52
494 0.95 0.85 0.75 2037.52
495 0.95 0.95 0.65 2037.52
496 0.85 0.85 0.85 2037.52
497 0.85 0.95 0.95 2037.52
498 0.95 0.85 0.95 2037.52
499 0.95 0.95 0.85 2037.52
ITEM: TIMESTEP
0.0001
ITEM: NUMBER OF ATOMS
500
ITEM: BOX BOUNDS pp pp pp
0 1
0 1
0 1
ITEM: ATOMS id x y z E
0 0.0499997 0.0500001 0.0499999 2037.52
1 0.0499999 0.15 0.15 2037.52
2 0.15 0.0500001 0.15 2037.52
3 0.15 0.15 0.0499998 2037.52
4 0.0499998 0.05 0.25 2037.52
5 0.0500001 0.15 0.35 2037.52
6 0.15 0.05 0.35 2037.52
7 0.15 0.15 0.25 2037.52
8 0.0499998 0.0500001 0.45 2037.52
9 0.0500002 0.15 0.55 2037.52
10 0.15 0.0500003 0.55 2037.52
11 0.15 0.15 0.45 2037.52
12 0.0499998 0.0500002 0.65 2037.52
13 0.0500001 0.15 0.75 2037.52
14 0.15 0.0499999 0.75 2037.52
15 0.15 0.15 0.65 2037.52
16 0.0499998 0.0500002 0.85 2037.52
17 0.0500003 0.15 0.95 2037.52
18 0.15 0.0500001 0.95 2037.52
19 0.15 0.15 0.85 2037.52
20 0.0499998 0.25 0.0500001 2037.52
21 0.0500001 0.35 0.15 2037.52
22 0.15 0.25 0.15 2037.52
23 0.15 0.35 0.0499997 2037.52
24 0.0500001 0.25 0.25 2037.52
25 0.0499999 0.35 0.35 2037.52
26 0.15 0.25 0.35 2037.52
27 0.15 0.35 0.25 2037.52
28 0.0499996 0.25 0.45 2037.52
29 0.0500001 0.35 0.55 2037.52
30 0.15 0.25 0.55 2037.52
31 0.15 0.35 0.45 2037.52
32 0.0500001 0.25 0.65 2037.52
33 0.0499997 0.35 0.75 2037.52
34 0.15 0.25 0.75 2037.52
35 0.15 0.35 0.65 2037.52
36 0.0500002 0.25 0.85 2037.52
37 0.05 0.35 0.95 2037.52
38 0.15 0.25 0.95 2037.52
39 0.15 0.35 0.85 2037.52
40 0.05 0.45 0.0499998 2037.52
41 0.05 0.55 0.15 2037.52
42 0.15 0.45 0.15 2037.52
43 0.15 0.55 0.0499997 2037.52
44 0.0499999 0.45 0.25 2037.52
45 0.05 0.55 0.35 2037.52
46 0.15 0.45 0.35 2037.52
47 0.15 0.55 0.25 2037.52
48 0.0499999 0.45 0.45 2037.52
49 0.0499998 0.55 0.55 2037.52
50 0.15 0.45 0.55 2037.52
51 0.15 0.55 0.45 2037.52
52 0.0500001 0.45 0.65 2037.52
53 0.05 0.55 0.75 2037.52
54 0.15 0.45 0.75 2037.52
55 0.15 0.55 0.65 2037.52
56 0.0499999 0.45 0.85 2037.52
57 0.05 0.55 0.95 2037.52
58 0.15 0.45 0.95 2037.52
59 0.15 0.55 0.85 2037.52
60 0.05 0.65 0.0500002 2037.52
61 0.05 0.75 0.15 2037.52
62 0.15 0.65 0.15 2037.52
63 0.15 0.75 0.0499998 2037.52
64 0.0500002 0.65 0.25 2037.52
65 0.0499998 0.75 0.35 2037.52
66 0.15 0.65 0.35 2037.52
67 0.15 0.75 0.25 2037.52
68 0.0499998 0.65 0.45 2037.52
69 0.0499998 0.75 0.55 2037.52
70 0.15 0.65 0.55 2037.52
71 0.15 0.75 0.45 2037.52
72 0.0500001 0.65 0.65 2037.52
73 0.0499997 0.75 0.75 2037.52
74 0.15 0.65 0.75 2037.52
75 0.15 0.75 0.65 2037.52
76 0.0500001 0.65 0.85 2037.52
77 0.0499999 0.75 0.95 2037.52
78 0.15 0.65 0.95 2037.52
79 0.15 0.75 0.85 2037.52
80 0.0500004 0.85 0.0500002 2037.52
81 0.0500001 0.95 0.15 2037.52
82 0.15 0.85 0.15 2037.52
83 0.15 0.95 0.05 2037.52
84 0.05 0.85 0.25 2037.52
85 0.0500002 0.95 0.35 2037.52
86 0.15 0.85 0.35 2037.52
87 0.15 0.95 0.25 2037.52
88 0.0499996 0.85 0.45 2037.52
89 0.0499997 0.95 0.55 2037.52
90 0.15 0.85 0.55 2037.52
91 0.15 0.95 0.45 2037.52
92 0.0500001 0.85 0.65 2037.52
93 0.0499998 0.95 0.75 2037.52
94 0.15 0.85 0.75 2037.52
95 0.15 0.95 0.65 2037.52
96 0.0499999 0.85 0.85 2037.52
97 0.0499998 0.95 0.95 2037.52
98 0.15 0.85 0.95 2037.52
99 0.15 0.95 0.85 2037.52
100 0.25 0.0500003 0.0500003 2037.52
101 0.25 0.15 0.15 2037.52
102 0.35 0.05 0.15 2037.52
103 0.35 0.15 0.0500002 2037.52
104 0.25 0.0500003 0.25 2037.52
105 0.25 0.15 0.35 2037.52
106 0.35 0.0499999 0.35 2037.52
107 0.35 0.15 0.25 2037.52
108 0.25 0.0499998 0.45 2037.52
109 0.25 0.15 0.55 2037.52
110 0.35 0.0499998 0.55 2037.52
111 0.35 0.15 0.45 2037.52
112 0.25 0.0499998 0.65 2037.52
113 0.25 0.15 0.75 2037.52
114 0.35 0.0499999 0.75 2037.52
115 0.35 0.15 0.65 2037.52
116 0.25 0.0499997 0.85 2037.52
117 0.25 0.15 0.95 2037.52
118 0.35 0.05 0.95 2037.52
119 0.35 0.15 0.85 2037.52
120 0.25 0.25 0.0499998 2037.52
121 0.25 0.35 0.15 2037.52
122 0.35 0.25 0.15 2037.52
123 0.35 0.35 0.0499999 2037.52
124 0.25 0.25 0.25 2037.52
125 0.25 0.35 0.349999 2037.52
126 0.349999 0.25 0.35 2037.52
127 0.35 0.35 0.25 2037.52
128 0.25 0.25 0.45 2037.52
129 0.25 0.35 0.55 2037.52
130 0.35 0.25 0.55 2037.52
131 0.35 0.35 0.45 2037.52
132 0.25 0.25 0.65 2037.52
133 0.25 0.35 0.75 2037.52
134 0.35 0.25 0.75 2037.52
135 0.35 0.35 0.65 2037.52
136 0.25 0.25 0.85 2037.52
137 0.25 0.35 0.95 2037.52
138 0.35 0.25 0.95 2037.52
139 0.35 0.35 0.85 2037.52
140 0.25 0.45 0.0500001 2037.52
141 0.25 0.55 0.15 2037.52
142 0.35 0.45 0.15 2037.52
143 0.35 0.55 0.05 2037.52
144 0.25 0.45 0.25 2037.52
145 0.25 0.55 0.35 2037.52
146 0.35 0.45 0.35 2037.52
147 0.35 0.55 0.25 2037.52
148 0.25 0.45 0.45 2037.52
149 0.25 0.55 0.55 2037.52
150 0.35 0.45 0.55 2037.52
151 0.35 0.55 0.45 2037.52
152 0.25 0.45 0.65 2037.52
153 0.25 0.55 0.75 2037.52
154 0.35 0.45 0.75 2037.52
155 0.35 0.55 0.65 2037.52
156 0.25 0.45 0.85 2037.52
157 0.25 0.55 0.95 2037.52
158 0.35 0.45 0.95 2037.52
159 0.35 0.55 0.85 2037.52
160 0.25 0.65 0.0499999 2037.52
161 0.25 0.75 0.15 2037.52
162 0.35 0.65 0.15 2037.52
163 0.35 0.75 0.05 2037.52
164 0.25 0.65 0.25 2037.52
165 0.25 0.75 0.35 2037.52
166 0.35 0.65 0.35 2037.52
167 0.35 0.75 0.25 2037.52
168 0.25 0.65 0.45 2037.52
169 0.25 0.75 0.55 2037.52
170 0.35 0.65 0.55 2037.52
171 0.35 0.75 0.45 2037.52
172 0.25 0.65 0.65 2037.52
173 0.25 0.75 0.75 2037.52
174 0.35 0.65 0.75 2037.52
175 0.35 0.75 0.65 2037.52
176 0.25 0.65 0.85 2037.52
177 0.25 0.75 0.95 2037.52
178 0.35 0.65 0.95 2037.52
179 0.35 0.75 0.85 2037.52
180 0.25 0.85 0.0499999 2037.52
181 0.25 0.95 0.15 2037.52
182 0.35 0.85 0.15 2037.52
183 0.35 0.95 0.0499999 2037.52
184 0.25 0.85 0.25 2037.52
185 0.25 0.95 0.35 2037.52
186 0.35 0.85 0.35 2037.52
187 0.35 0.95 0.25 2037.52
188 0.25 0.85 0.45 2037.52
189 0.25 0.95 0.55 2037.52
190 0.35 0.85 0.55 2037.52
191 0.35 0.95 0.45 2037.52
192 0.25 0.85 0.65 2037.52
193 0.25 0.95 0.75 2037.52
194 0.35 0.85 0.75 2037.52
195 0.35 0.95 0.65 2037.52
196 0.25 0.85 0.85 2037.52
197 0.25 0.95 0.95 2037.52
198 0.35 0.85 0.95 2037.52
199 0.35 0.95 0.85 2037.52
200 0.45 0.05 0.0499999 2037.52
201 0.45 0.15 0.15 2037.52
202 0.55 0.0499997 0.15 2037.52
203 0.55 0.15 0.0500004 2037.52
204 0.45 0.0500002 0.25 2037.52
205 0.45 0.15 0.35 2037.52
206 0.55 0.0500002 0.35 2037.52
207 0.55 0.15 0.25 2037.52
208 0.45 0.0499999 0.45 2037.52
209 0.45 0.15 0.55 2037.52
210 0.55 0.0499998 0.55 2037.52
211 0.55 0.15 0.45 2037.52
212 0.45 0.0500003 0.65 2037.52
213 0.45 0.15 0.75 2037.52
214 0.55 0.0500003 0.75 2037.52
215 0.55 0.15 0.65 2037.52
216 0.45 0.0499998 0.85 2037.52
217 0.45 0.15 0.95 2037.52
218 0.55 0.0500001 0.95 2037.52
219 0.55 0.15 0.85 2037.52
220 0.45 0.25 0.0499998 2037.52
221 0.45 0.35 0.15 2037.52
222 0.55 0.25 0.15 2037.52
223 0.55 0.35 0.0499999 2037.52
224 0.449999 0.25 0.25 2037.52
225 0.45 0.35 0.35 2037.52
226 0.55 0.25 0.35 2037.52
227 0.55 0.35 0.25 2037.52
228 0.45 0.25 0.45 2037.52
229 0.45 0.35 0.55 2037.52
230 0.55 0.25 0.55 2037.52
231 0.55 0.35 0.45 2037.52
232 0.45 0.25 0.65 2037.52
233 0.45 0.35 0.75 2037.52
234 0.55 0.25 0.75 2037.52
235 0.55 0.35 0.65 2037.52
236 0.45 0.25 0.85 2037.52
237 0.45 0.35 0.95 2037.52
238 0.55 0.25 0.95 2037.52
239 0.55 0.35 0.85 2037.52
240 0.45 0.45 0.05 2037.52
241 0.45 0.55 0.15 2037.52
242 0.55 0.45 0.15 2037.52
243 0.55 0.55 0.05 2037.52
244 0.45 0.45 0.25 2037.52
245 0.45 0.55 0.35 2037.52
246 0.55 0.45 0.35 2037.52
247 0.55 0.55 0.25 2037.52
248 0.45 0.45 0.45 2037.52
249 0.45 0.55 0.55 2037.52
250 0.55 0.45 0.55 2037.52
251 0.55 0.55 0.45 2037.52
252 0.45 0.45 0.65 2037.52
253 0.45 0.55 0.75 2037.52
254 0.55 0.45 0.75 2037.52
255 0.55 0.55 0.65 2037.52
256 0.45 0.45 0.85 2037.52
257 0.45 0.55 0.95 2037.52
258 0.55 0.45 0.95 2037.52
259 0.55 0.55 0.85 2037.52
260 0.45 0.65 0.0500002 2037.52
261 0.45 0.75 0.15 2037.52
262 0.55 0.65 0.15 2037.52
263 0.55 0.75 0.05 2037.52
264 0.45 0.65 0.25 2037.52
265 0.45 0.75 0.35 2037.52
266 0.55 0.65 0.35 2037.52
267 0.55 0.75 0.25 2037.52
268 0.45 0.65 0.45 2037.52
269 0.45 0.75 0.55 2037.52
270 0.55 0.65 0.55 2037.52
271 0.55 0.75 0.45 2037.52
272 0.45 0.65 0.65 2037.52
273 0.45 0.75 0.75 2037.52
274 0.55 0.65 0.75 2037.52
275 0.55 0.75 0.65 2037.52
276 0.45 0.65 0.85 2037.52
277 0.45 0.75 0.95 2037.52
278 0.55 0.65 0.95 2037.52
279 0.55 0.75 0.85 2037.52
280 0.45 0.85 0.0499997 2037.52
281 0.45 0.95 0.15 2037.52
282 0.55 0.85 0.15 2037.52
283 0.55 0.95 0.0499998 2037.52
284 0.45 0.85 0.25 2037.52
285 0.45 0.95 0.35 2037.52
286 0.55 0.85 0.35 2037.52
287 0.55 0.95 0.25 2037.52
288 0.45 0.85 0.45 2037.52
289 0.45 0.95 0.55 2037.52
290 0.55 0.85 0.550001 2037.52
291 0.55 0.95 0.45 2037.52
292 0.45 0.85 0.65 2037.52
293 0.45 0.95 0.75 2037.52
294 0.55 0.85 0.75 2037.52
295 0.55 0.95 0.65 2037.52
296 0.45 0.85 0.85 2037.52
297 0.45 0.95 0.95 2037.52
298 0.55 0.85 0.95 2037.52
299 0.55 0.95 0.85 2037.52
300 0.65 0.0499999 0.0500001 2037.52
301 0.65 0.15 0.15 2037.52
302 0.75 0.0499998 0.15 2037.52
303 0.75 0.15 0.05 2037.52
304 0.65 0.05 0.25 2037.52
305 0.65 0.15 0.35 2037.52
306 0.75 0.0499999 0.35 2037.52
307 0.75 0.15 0.25 2037.52
308 0.65 0.0499999 0.45 2037.52
309 0.65 0.15 0.55 2037.52
310 0.75 0.05 0.55 2037.52
311 0.75 0.15 0.45 2037.52
312 0.65 0.0499998 0.65 2037.52
313 0.65 0.15 0.75 2037.52
314 0.75 0.0500001 0.75 2037.52
315 0.75 0.15 0.65 2037.52
316 0.65 0.0500001 0.85 2037.52
317 0.65 0.15 0.95 2037.52
318 0.75 0.0499999 0.95 2037.52
319 0.75 0.15 0.85 2037.52
320 0.65 0.25 0.05 2037.52
321 0.65 0.35 0.15 2037.52
322 0.75 0.25 0.149999 2037.52
323 0.75 0.35 0.0499997 2037.52
324 0.65 0.25 0.25 2037.52
325 0.65 0.35 0.35 2037.52
326 0.75 0.25 0.35 2037.52
327 0.75 0.35 0.25 2037.52
328 0.65 0.25 0.45 2037.52
329 0.65 0.35 0.55 2037.52
330 0.75 0.25 0.55 2037.52
331 0.750001 0.35 0.45 2037.52
332 0.65 0.25 0.65 2037.52
333 0.65 0.35 0.75 2037.52
334 0.75 0.25 0.75 2037.52
335 0.75 0.35 0.65 2037.52
336 0.65 0.25 0.85 2037.52
337 0.65 0.35 0.95 2037.52
338 0.75 0.25 0.95 2037.52
339 0.75 0.35 0.85 2037.52
340 0.65 0.45 0.05 2037.52
341 0.65 0.55 0.15 2037.52
342 0.75 0.45 0.15 2037.52
343 0.75 0.55 0.0499998 2037.52
344 0.65 0.45 0.25 2037.52
345 0.65 0.55 0.35 2037.52
346 0.75 0.45 0.35 2037.52
347 0.75 0.55 0.25 2037.52
348 0.65 0.45 0.45 2037.52
349 0.65 0.55 0.55 2037.52
350 0.75 0.45 0.55 2037.52
351 0.75 0.55 0.45 2037.52
352 0.65 0.45 0.65 2037.52
353 0.65 0.55 0.75 2037.52
354 0.75 0.45 0.75 2037.52
355 0.75 0.55 0.65 2037.52
356 0.65 0.45 0.85 2037.52
357 0.65 0.55 0.95 2037.52
358 0.75 0.45 0.95 2037.52
359 0.75 0.55 0.85 2037.52
360 0.65 0.65 0.0499998 2037.52
361 0.65 0.75 0.15 2037.52
362 0.75 0.65 0.15 2037.52
363 0.75 0.75 0.0499999 2037.52
364 0.65 0.65 0.25 2037.52
365 0.65 0.75 0.35 2037.52
366 0.75 0.650001 0.35 2037.52
367 0.75 0.75 0.25 2037.52
368 0.65 0.65 0.45 2037.52
369 0.65 0.75 0.55 2037.52
370 0.75 0.65 0.55 2037.52
371 0.75 0.75 0.45 2037.52
372 0.65 0.65 0.65 2037.52
373 0.65 0.75 0.75 2037.52
374 0.75 0.65 0.75 2037.52
375 0.75 0.75 0.65 2037.52
376 0.65 0.65 0.85 2037.52
377 0.65 0.75 0.95 2037.52
378 0.75 0.65 0.95 2037.52
379 0.75 0.75 0.85 2037.52
380 0.65 0.85 0.0499998 2037.52
381 0.65 0.95 0.15 2037.52
382 0.75 0.85 0.15 2037.52
383 0.75 0.95 0.05 2037.52
384 0.65 0.85 0.25 2037.52
385 0.65 0.95 0.35 2037.52
386 0.75 0.85 0.35 2037.52
387 0.75 0.95 0.25 2037.52
388 0.65 0.85 0.45 2037.52
389 0.65 0.95 0.55 2037.52
390 0.75 0.85 0.55 2037.52
391 0.75 0.95 0.45 2037.52
392 0.65 0.85 0.65 2037.52
393 0.65 0.95 0.75 2037.52
394 0.75 0.85 0.75 2037.52
395 0.75 0.95 0.65 2037.52
396 0.65 0.85 0.85 2037.52
397 0.65 0.95 0.95 2037.52
398 0.75 0.85 0.95 2037.52
399 0.75 0.95 0.850001 2037.52
400 0.85 0.0499997 0.0499999 2037.52
401 0.85 0.15 0.15 2037.52
402 0.95 0.0500002 0.15 2037.52
403 0.95 0.15 0.0500003 2037.52
404 0.85 0.0500002 0.25 2037.52
405 0.85 0.15 0.35 2037.52
406 0.95 0.0500003 0.35 2037.52
407 0.95 0.15 0.25 2037.52
408 0.85 0.0500001 0.45 2037.52
409 0.85 0.15 0.55 2037.52
410 0.95 0.0500001 0.55 2037.52
411 0.95 0.15 0.45 2037.52
412 0.85 0.0499997 0.65 2037.52
413 0.85 0.15 0.75 2037.52
414 0.95 0.0499999 0.75 2037.52
415 0.95 0.15 0.65 2037.52
416 0.85 0.0499998 0.85 2037.52
417 0.85 0.15 0.95 2037.52
418 0.95 0.0500001 0.95 2037.52
419 0.95 0.15 0.85 2037.52
420 0.85 0.25 0.05 2037.52
421 0.85 0.35 0.15 2037.52
422 0.95 0.249999 0.15 2037.52
423 0.95 0.35 0.0500003 2037.52
424 0.85 0.25 0.25 2037.52
425 0.85 0.35 0.35 2037.52
426 0.950001 0.25 0.35 2037.52
427 0.95 0.35 0.25 2037.52
428 0.85 0.25 0.45 2037.52
429 0.85 0.35 0.55 2037.52
430 0.95 0.25 0.55 2037.52
431 0.95 0.35 0.45 2037.52
432 0.85 0.25 0.65 2037.52
433 0.85 0.35 0.75 2037.52
434 0.95 0.25 0.75 2037.52
435 0.95 0.35 0.65 2037.52
436 0.85 0.25 0.85 2037.52
437 0.850001 0.35 0.95 2037.52
438 0.95 0.25 0.95 2037.52
439 0.95 0.35 0.85 2037.52
440 0.85 0.45 0.0500001 2037.52
441 0.85 0.55 0.15 2037.52
442 0.95 0.45 0.15 2037.52
443 0.95 0.55 0.0500001 2037.52
444 0.85 0.45 0.25 2037.52
445 0.85 0.55 0.35 2037.52
446 0.95 0.45 0.35 2037.52
447 0.950001 0.55 0.25 2037.52
448 0.85 0.45 0.45 2037.52
449 0.85 0.55 0.55 2037.52
450 0.95 0.45 0.55 2037.52
451 0.95 0.55 0.449999 2037.52
452 0.85 0.45 0.65 2037.52
453 0.85 0.55 0.75 2037.52
454 0.95 0.45 0.75 2037.52
455 0.950001 0.550001 0.650001 2037.52
456 0.85 0.45 0.85 2037.52
457 0.85 0.55 0.95 2037.52
458 0.95 0.45 0.95 2037.52
459 0.95 0.55 0.85 2037.52
460 0.85 0.65 0.0499999 2037.52
461 0.85 0.75 0.15 2037.52
462 0.95 0.65 0.15 2037.52
463 0.95 0.75 0.0500001 2037.52
464 0.85 0.65 0.25 2037.52
465 0.85 0.75 0.35 2037.52
466 0.95 0.65 0.35 2037.52
467 0.95 0.75 0.25 2037.52
468 0.85 0.65 0.45 2037.52
469 0.85 0.75 0.55 2037.52
470 0.95 0.65 0.55 2037.52
471 0.95 0.75 0.45 2037.52
472 0.85 0.65 0.65 2037.52
473 0.85 0.75 0.75 2037.52
474 0.95 0.65 0.75 2037.52
475 0.95 0.75 0.65 2037.52
476 0.85 0.65 0.85 2037.52
477 0.85 0.75 0.95 2037.52
478 0.95 0.65 0.95 2037.52
479 0.95 0.75 0.85 2037.52
480 0.85 0.85 0.05 2037.52
481 0.85 0.95 0.15 2037.52
482 0.95 0.85 0.15 2037.52
483 0.95 0.95 0.0500003 2037.52
484 0.85 0.85 0.25 2037.52
485 0.85 0.95 0.35 2037.52
486 0.95 0.85 0.35 2037.52
487 0.95 0.95 0.25 2037.52
488 0.85 0.85 0.45 2037.52
489 0.85 0.95 0.55 2037.52
490 0.95 0.85 0.55 2037.52
491 0.95 0.95 0.45 2037.52
492 0.85 0.85 0.65 2037.52
493 0.85 0.95 0.75 2037.52
494 0.95 0.85 0.75 2037.52
495 0.95 0.95 0.65 2037.52
496 0.85 0.85 0.85 2037.52
497 0.85 0.95 0.95 2037.52
498 0.95 0.85 0.95 2037.52
499 0.95 0.95 0.85 2037.52
ITEM: TIMESTEP
0.0002
ITEM: NUMBER OF ATOMS
500
ITEM: BOX BOUNDS pp pp pp
0 1
0 1
0 1
ITEM: ATOMS id x y z E
0 0.0499995 0.0500002 0.0499998 2037.52
1 0.0499998 0.15 0.15 2037.52
2 0.15 0.0500002 0.15 2037.52
3 0.15 0.15 0.0499996 2037.52
4 0.0499997 0.0499999 0.25 2037.52
5 0.0500002 0.15 0.35 2037.52
6 0.15 0.05 0.35 2037.52
7 0.15 0.149999 0.25 2037.52
8 0.0499997 0.0500001 0.45 2037.52
9 0.0500002 0.15 0.550001 2037.52
10 0.15 0.0500004 0.55 2037.52
11 0.15 0.15 0.45 2037.52
12 0.0499998 0.0500003 0.65 2037.52
13 0.0500001 0.15 0.75 2037.52
14 0.15 0.0499999 0.75 2037.52
15 0.15 0.15 0.65 2037.52
16 0.0499997 0.0500003 0.85 2037.52
17 0.0500005 0.15 0.95 2037.52
18 0.15 0.0500002 0.95 2037.52
19 0.15 0.15 0.85 2037.52
20 0.0499997 0.25 0.0500002 2037.52
21 0.0500002 0.35 0.15 2037.52
22 0.15 0.249999 0.15 2037.52
23 0.15 0.35 0.0499995 2037.52
24 0.0500002 0.25 0.25 2037.52
25 0.0499999 0.35 0.35 2037.52
26 0.15 0.25 0.35 2037.52
27 0.15 0.35 0.25 2037.52
28 0.0499994 0.25 0.45 2037.52
29 0.0500002 0.35 0.55 2037.52
30 0.15 0.25 0.55 2037.52
31 0.15 0.35 0.450001 2037.52
32 0.0500001 0.25 0.65 2037.52
33 0.0499995 0.35 0.75 2037.52
34 0.15 0.25 0.750001 2037.52
35 0.15 0.35 0.649999 2037.52
36 0.0500002 0.25 0.85 2037.52
37 0.05 0.35 0.95 2037.52
38 0.15 0.25 0.95 2037.52
39 0.15 0.35 0.85 2037.52
40 0.0500001 0.45 0.0499997 2037.52
41 0.0499999 0.55 0.15 2037.52
42 0.15 0.45 0.15 2037.52
43 0.15 0.549999 0.0499996 2037.52
44 0.0499999 0.45 0.25 2037.52
45 0.05 0.55 0.35 2037.52
46 0.15 0.45 0.35 2037.52
47 0.15 0.55 0.25 2037.52
48 0.0499999 0.45 0.45 2037.52
49 0.0499997 0.55 0.549999 2037.52
50 0.15 0.45 0.55 2037.52
51 0.15 0.55 0.45 2037.52
52 0.0500001 0.449999 0.65 2037.52
53 0.05 0.549999 0.75 2037.52
54 0.15 0.45 0.750001 2037.52
55 0.15 0.55 0.65 2037.52