ITEM: TIMESTEP
0
ITEM: NUMBER OF ATOMS
500
ITEM: BOX BOUNDS pp pp pp
0 1
0 1
0 1
ITEM: ATOMS id x y z E
0 0.05 0.05 0.05 0
1 0.05 0.15 0.15 0
2 0.15 0.05 0.15 0
3 0.15 0.15 0.05 0
4 0.05 0.05 0.25 0
5 0.05 0.15 0.35 0
6 0.15 0.05 0.35 0
7 0.15 0.15 0.25 0
8 0.05 0.05 0.45 0
9 0.05 0.15 0.55 0
10 0.15 0.05 0.55 0
11 0.15 0.15 0.45 0
12 0.05 0.05 0.65 0
13 0.05 0.15 0.75 0
14 0.15 0.05 0.75 0
15 0.15 0.15 0.65 0
16 0.05 0.05 0.85 0
17 0.05 0.15 0.95 0
18 0.15 0.05 0.95 0
19 0.15 0.15 0.85 0
20 0.05 0.25 0.05 0
21 0.05 0.35 0.15 0
22 0.15 0.25 0.15 0
23 0.15 0.35 0.05 0
24 0.05 0.25 0.25 0
25 0.05 0.35 0.35 0
26 0.15 0.25 0.35 0
27 0.15 0.35 0.25 0
28 0.05 0.25 0.45 0
29 0.05 0.35 0.55 0
30 0.15 0.25 0.55 0
31 0.15 0.35 0.45 0
32 0.05 0.25 0.65 0
33 0.05 0.35 0.75 0
34 0.15 0.25 0.75 0
35 0.15 0.35 0.65 0
36 0.05 0.25 0.85 0
37 0.05 0.35 0.95 0
38 0.15 0.25 0.95 0
39 0.15 0.35 0.85 0
40 0.05 0.45 0.05 0
41 0.05 0.55 0.15 0
42 0.15 0.45 0.15 0
43 0.15 0.55 0.05 0
44 0.05 0.45 0.25 0
45 0.05 0.55 0.35 0
46 0.15 0.45 0.35 0
47 0.15 0.55 0.25 0
48 0.05 0.45 0.45 0
49 0.05 0.55 0.55 0
50 0.15 0.45 0.55 0
51 0.15 0.55 0.45 0
52 0.05 0.45 0.65 0
53 0.05 0.55 0.75 0
54 0.15 0.45 0.75 0
55 0.15 0.55 0.65 0
56 0.05 0.45 0.85 0
57 0.05 0.55 0.95 0
58 0.15 0.45 0.95 0
59 0.15 0.55 0.85 0
60 0.05 0.65 0.05 0
61 0.05 0.75 0.15 0
62 0.15 0.65 0.15 0
63 0.15 0.75 0.05 0
64 0.05 0.65 0.25 0
65 0.05 0.75 0.35 0
66 0.15 0.65 0.35 0
67 0.15 0.75 0.25 0
68 0.05 0.65 0.45 0
69 0.05 0.75 0.55 0
70 0.15 0.65 0.55 0
71 0.15 0.75 0.45 0
72 0.05 0.65 0.65 0
73 0.05 0.75 0.75 0
74 0.15 0.65 0.75 0
75 0.15 0.75 0.65 0
76 0.05 0.65 0.85 0
77 0.05 0.75 0.95 0
78 0.15 0.65 0.95 0
79 0.15 0.75 0.85 0
80 0.05 0.85 0.05 0
81 0.05 0.95 0.15 0
82 0.15 0.85 0.15 0
83 0.15 0.95 0.05 0
84 0.05 0.85 0.25 0
85 0.05 0.95 0.35 0
86 0.15 0.85 0.35 0
87 0.15 0.95 0.25 0
88 0.05 0.85 0.45 0
89 0.05 0.95 0.55 0
90 0.15 0.85 0.55 0
91 0.15 0.95 0.45 0
92 0.05 0.85 0.65 0
93 0.05 0.95 0.75 0
94 0.15 0.85 0.75 0
95 0.15 0.95 0.65 0
96 0.05 0.85 0.85 0
97 0.05 0.95 0.95 0
98 0.15 0.85 0.95 0
99 0.15 0.95 0.85 0
100 0.25 0.05 0.05 0
101 0.25 0.15 0.15 0
102 0.35 0.05 0.15 0
103 0.35 0.15 0.05 0
104 0.25 0.05 0.25 0
105 0.25 0.15 0.35 0
106 0.35 0.05 0.35 0
107 0.35 0.15 0.25 0
108 0.25 0.05 0.45 0
109 0.25 0.15 0.55 0
110 0.35 0.05 0.55 0
111 0.35 0.15 0.45 0
112 0.25 0.05 0.65 0
113 0.25 0.15 0.75 0
114 0.35 0.05 0.75 0
115 0.35 0.15 0.65 0
116 0.25 0.05 0.85 0
117 0.25 0.15 0.95 0
118 0.35 0.05 0.95 0
119 0.35 0.15 0.85 0
120 0.25 0.25 0.05 0
121 0.25 0.35 0.15 0
122 0.35 0.25 0.15 0
123 0.35 0.35 0.05 0
124 0.25 0.25 0.25 0
125 0.25 0.35 0.35 0
126 0.35 0.25 0.35 0
127 0.35 0.35 0.25 0
128 0.25 0.25 0.45 0
129 0.25 0.35 0.55 0
130 0.35 0.25 0.55 0
131 0.35 0.35 0.45 0
132 0.25 0.25 0.65 0
133 0.25 0.35 0.75 0
134 0.35 0.25 0.75 0
135 0.35 0.35 0.65 0
136 0.25 0.25 0.85 0
137 0.25 0.35 0.95 0
138 0.35 0.25 0.95 0
139 0.35 0.35 0.85 0
140 0.25 0.45 0.05 0
141 0.25 0.55 0.15 0
142 0.35 0.45 0.15 0
143 0.35 0.55 0.05 0
144 0.25 0.45 0.25 0
145 0.25 0.55 0.35 0
146 0.35 0.45 0.35 0
147 0.35 0.55 0.25 0
148 0.25 0.45 0.45 0
149 0.25 0.55 0.55 0
150 0.35 0.45 0.55 0
151 0.35 0.55 0.45 0
152 0.25 0.45 0.65 0
153 0.25 0.55 0.75 0
154 0.35 0.45 0.75 0
155 0.35 0.55 0.65 0
156 0.25 0.45 0.85 0
157 0.25 0.55 0.95 0
158 0.35 0.45 0.95 0
159 0.35 0.55 0.85 0
160 0.25 0.65 0.05 0
161 0.25 0.75 0.15 0
162 0.35 0.65 0.15 0
163 0.35 0.75 0.05 0
164 0.25 0.65 0.25 0
165 0.25 0.75 0.35 0
166 0.35 0.65 0.35 0
167 0.35 0.75 0.25 0
168 0.25 0.65 0.45 0
169 0.25 0.75 0.55 0
170 0.35 0.65 0.55 0
171 0.35 0.75 0.45 0
172 0.25 0.65 0.65 0
173 0.25 0.75 0.75 0
174 0.35 0.65 0.75 0
175 0.35 0.75 0.65 0
176 0.25 0.65 0.85 0
177 0.25 0.75 0.95 0
178 0.35 0.65 0.95 0
179 0.35 0.75 0.85 0
180 0.25 0.85 0.05 0
181 0.25 0.95 0.15 0
182 0.35 0.85 0.15 0
183 0.35 0.95 0.05 0
184 0.25 0.85 0.25 0
185 0.25 0.95 0.35 0
186 0.35 0.85 0.35 0
187 0.35 0.95 0.25 0
188 0.25 0.85 0.45 0
189 0.25 0.95 0.55 0
190 0.35 0.85 0.55 0
191 0.35 0.95 0.45 0
192 0.25 0.85 0.65 0
193 0.25 0.95 0.75 0
194 0.35 0.85 0.75 0
195 0.35 0.95 0.65 0
196 0.25 0.85 0.85 0
197 0.25 0.95 0.95 0
198 0.35 0.85 0.95 0
199 0.35 0.95 0.85 0
200 0.45 0.05 0.05 0
201 0.45 0.15 0.15 0
202 0.55 0.05 0.15 0
203 0.55 0.15 0.05 0
204 0.45 0.05 0.25 0
205 0.45 0.15 0.35 0
206 0.55 0.05 0.35 0
207 0.55 0.15 0.25 0
208 0.45 0.05 0.45 0
209 0.45 0.15 0.55 0
210 0.55 0.05 0.55 0
211 0.55 0.15 0.45 0
212 0.45 0.05 0.65 0
213 0.45 0.15 0.75 0
214 0.55 0.05 0.75 0
215 0.55 0.15 0.65 0
216 0.45 0.05 0.85 0
217 0.45 0.15 0.95 0
218 0.55 0.05 0.95 0
219 0.55 0.15 0.85 0
220 0.45 0.25 0.05 0
221 0.45 0.35 0.15 0
222 0.55 0.25 0.15 0
223 0.55 0.35 0.05 0
224 0.45 0.25 0.25 0
225 0.45 0.35 0.35 0
226 0.55 0.25 0.35 0
227 0.55 0.35 0.25 0
228 0.45 0.25 0.45 0
229 0.45 0.35 0.55 0
230 0.55 0.25 0.55 0
231 0.55 0.35 0.45 0
232 0.45 0.25 0.65 0
233 0.45 0.35 0.75 0
234 0.55 0.25 0.75 0
235 0.55 0.35 0.65 0
236 0.45 0.25 0.85 0
237 0.45 0.35 0.95 0
238 0.55 0.25 0.95 0
239 0.55 0.35 0.85 0
240 0.45 0.45 0.05 0
241 0.45 0.55 0.15 0
242 0.55 0.45 0.15 0
243 0.55 0.55 0.05 0
244 0.45 0.45 0.25 0
245 0.45 0.55 0.35 0
246 0.55 0.45 0.35 0
247 0.55 0.55 0.25 0
248 0.45 0.45 0.45 0
249 0.45 0.55 0.55 0
250 0.55 0.45 0.55 0
251 0.55 0.55 0.45 0
252 0.45 0.45 0.65 0
253 0.45 0.55 0.75 0
254 0.55 0.45 0.75 0
255 0.55 0.55 0.65 0
256 0.45 0.45 0.85 0
257 0.45 0.55 0.95 0
258 0.55 0.45 0.95 0
259 0.55 0.55 0.85 0
260 0.45 0.65 0.05 0
261 0.45 0.75 0.15 0
262 0.55 0.65 0.15 0
263 0.55 0.75 0.05 0
264 0.45 0.65 0.25 0
265 0.45 0.75 0.35 0
266 0.55 0.65 0.35 0
267 0.55 0.75 0.25 0
268 0.45 0.65 0.45 0
269 0.45 0.75 0.55 0
270 0.55 0.65 0.55 0
271 0.55 0.75 0.45 0
272 0.45 0.65 0.65 0
273 0.45 0.75 0.75 0
274 0.55 0.65 0.75 0
275 0.55 0.75 0.65 0
276 0.45 0.65 0.85 0
277 0.45 0.75 0.95 0
278 0.55 0.65 0.95 0
279 0.55 0.75 0.85 0
280 0.45 0.85 0.05 0
281 0.45 0.95 0.15 0
282 0.55 0.85 0.15 0
283 0.55 0.95 0.05 0
284 0.45 0.85 0.25 0
285 0.45 0.95 0.35 0
286 0.55 0.85 0.35 0
287 0.55 0.95 0.25 0
288 0.45 0.85 0.45 0
289 0.45 0.95 0.55 0
290 0.55 0.85 0.55 0
291 0.55 0.95 0.45 0
292 0.45 0.85 0.65 0
293 0.45 0.95 0.75 0
294 0.55 0.85 0.75 0
295 0.55 0.95 0.65 0
296 0.45 0.85 0.85 0
297 0.45 0.95 0.95 0
298 0.55 0.85 0.95 0
299 0.55 0.95 0.85 0
300 0.65 0.05 0.05 0
301 0.65 0.15 0.15 0
302 0.75 0.05 0.15 0
303 0.75 0.15 0.05 0
304 0.65 0.05 0.25 0
305 0.65 0.15 0.35 0
306 0.75 0.05 0.35 0
307 0.75 0.15 0.25 0
308 0.65 0.05 0.45 0
309 0.65 0.15 0.55 0
310 0.75 0.05 0.55 0
311 0.75 0.15 0.45 0
312 0.65 0.05 0.65 0
313 0.65 0.15 0.75 0
314 0.75 0.05 0.75 0
315 0.75 0.15 0.65 0
316 0.65 0.05 0.85 0
317 0.65 0.15 0.95 0
318 0.75 0.05 0.95 0
319 0.75 0.15 0.85 0
320 0.65 0.25 0.05 0
321 0.65 0.35 0.15 0
322 0.75 0.25 0.15 0
323 0.75 0.35 0.05 0
324 0.65 0.25 0.25 0
325 0.65 0.35 0.35 0
326 0.75 0.25 0.35 0
327 0.75 0.35 0.25 0
328 0.65 0.25 0.45 0
329 0.65 0.35 0.55 0
330 0.75 0.25 0.55 0
331 0.75 0.35 0.45 0
332 0.65 0.25 0.65 0
333 0.65 0.35 0.75 0
334 0.75 0.25 0.75 0
335 0.75 0.35 0.65 0
336 0.65 0.25 0.85 0
337 0.65 0.35 0.95 0
338 0.75 0.25 0.95 0
339 0.75 0.35 0.85 0
340 0.65 0.45 0.05 0
341 0.65 0.55 0.15 0
342 0.75 0.45 0.15 0
343 0.75 0.55 0.05 0
344 0.65 0.45 0.25 0
345 0.65 0.55 0.35 0
346 0.75 0.45 0.35 0
347 0.75 0.55 0.25 0
348 0.65 0.45 0.45 0
349 0.65 0.55 0.55 0
350 0.75 0.45 0.55 0
351 0.75 0.55 0.45 0
352 0.65 0.45 0.65 0
353 0.65 0.55 0.75 0
354 0.75 0.45 0.75 0
355 0.75 0.55 0.65 0
356 0.65 0.45 0.85 0
357 0.65 0.55 0.95 0
358 0.75 0.45 0.95 0
359 0.75 0.55 0.85 0
360 0.65 0.65 0.05 0
361 0.65 0.75 0.15 0
362 0.75 0.65 0.15 0
363 0.75 0.75 0.05 0
364 0.65 0.65 0.25 0
365 0.65 0.75 0.35 0
366 0.75 0.65 0.35 0
367 0.75 0.75 0.25 0
368 0.65 0.65 0.45 0
369 0.65 0.75 0.55 0
370 0.75 0.65 0.55 0
371 0.75 0.75 0.45 0
372 0.65 0.65 0.65 0
373 0.65 0.75 0.75 0
374 0.75 0.65 0.75 0
375 0.75 0.75 0.65 0
376 0.65 0.65 0.85 0
377 0.65 0.75 0.95 0
378 0.75 0.65 0.95 0
379 0.75 0.75 0.85 0
380 0.65 0.85 0.05 0
381 0.65 0.95 0.15 0
382 0.75 0.85 0.15 0
383 0.75 0.95 0.05 0
384 0.65 0.85 0.25 0
385 0.65 0.95 0.35 0
386 0.75 0.85 0.35 0
387 0.75 0.95 0.25 0
388 0.65 0.85 0.45 0
389 0.65 0.95 0.55 0
390 0.75 0.85 0.55 0
391 0.75 0.95 0.45 0
392 0.65 0.85 0.65 0
393 0.65 0.95 0.75 0
394 0.75 0.85 0.75 0
395 0.75 0.95 0.65 0
396 0.65 0.85 0.85 0
397 0.65 0.95 0.95 0
398 0.75 0.85 0.95 0
399 0.75 0.95 0.85 0
400 0.85 0.05 0.05 0
401 0.85 0.15 0.15 0
402 0.95 0.05 0.15 0
403 0.95 0.15 0.05 0
404 0.85 0.05 0.25 0
405 0.85 0.15 0.35 0
406 0.95 0.05 0.35 0
407 0.95 0.15 0.25 0
408 0.85 0.05 0.45 0
409 0.85 0.15 0.55 0
410 0.95 0.05 0.55 0
411 0.95 0.15 0.45 0
412 0.85 0.05 0.65 0
413 0.85 0.15 0.75 0
414 0.95 0.05 0.75 0
415 0.95 0.15 0.65 0
416 0.85 0.05 0.85 0
417 0.85 0.15 0.95 0
418 0.95 0.05 0.95 0
419 0.95 0.15 0.85 0
420 0.85 0.25 0.05 0
421 0.85 0.35 0.15 0
422 0.95 0.25 0.15 0
423 0.95 0.35 0.05 0
424 0.85 0.25 0.25 0
425 0.85 0.35 0.35 0
426 0.95 0.25 0.35 0
427 0.95 0.35 0.25 0
428 0.85 0.25 0.45 0
429 0.85 0.35 0.55 0
430 0.95 0.25 0.55 0
431 0.95 0.35 0.45 0
432 0.85 0.25 0.65 0
433 0.85 0.35 0.75 0
434 0.95 0.25 0.75 0
435 0.95 0.35 0.65 0
436 0.85 0.25 0.85 0
437 0.85 0.35 0.95 0
438 0.95 0.25 0.95 0
439 0.95 0.35 0.85 0
440 0.85 0.45 0.05 0
441 0.85 0.55 0.15 0
442 0.95 0.45 0.15 0
443 0.95 0.55 0.05 0
444 0.85 0.45 0.25 0
445 0.85 0.55 0.35 0
446 0.95 0.45 0.35 0
447 0.95 0.55 0.25 0
448 0.85 0.45 0.45 0
449 0.85 0.55 0.55 0
450 0.95 0.45 0.55 0
451 0.95 0.55 0.45 0
452 0.85 0.45 0.65 0
453 0.85 0.55 0.75 0
454 0.95 0.45 0.75 0
455 0.95 0.55 0.65 0
456 0.85 0.45 0.85 0
457 0.85 0.55 0.95 0
458 0.95 0.45 0.95 0
459 0.95 0.55 0.85 0
460 0.85 0.65 0.05 0
461 0.85 0.75 0.15 0
462 0.95 0.65 0.15 0
463 0.95 0.75 0.05 0
464 0.85 0.65 0.25 0
465 0.85 0.75 0.35 0
466 0.95 0.65 0.35 0
467 0.95 0.75 0.25 0
468 0.85 0.65 0.45 0
469 0.85 0.75 0.55 0
470 0.95 0.65 0.55 0
471 0.95 0.75 0.45 0
472 0.85 0.65 0.65 0
473 0.85 0.75 0.75 0
474 0.95 0.65 0.75 0
475 0.95 0.75 0.65 0
476 0.85 0.65 0.85 0
477 0.85 0.75 0.95 0
478 0.95 0.65 0.95 0
479 0.95 0.75 0.85 0
480 0.85 0.85 0.05 0
481 0.85 0.95 0.15 0
482 0.95 0.85 0.15 0
483 0.95 0.95 0.05 0
484 0.85 0.85 0.25 0
485 0.85 0.95 0.35 0
486 0.95 0.85 0.35 0
487 0.95 0.95 0.25 0
488 0.85 0.85 0.45 0
489 0.85 0.95 0.55 0
490 0.95 0.85 0.55 0
491 0.95 0.95 0.45 0
492 0.85 0.85 0.65 0
493 0.85 0.95 0.75 0
494 0.95 0.85 0.75 0
495 0.95 0.95 0.65 0
496 0.85 0.85 0.85 0
497 0.85 0.95 0.95 0
498 0.95 0.85 0.95 0
499 0.95 0.95 0.85 0
ITEM: TIMESTEP
0
ITEM: NUMBER OF ATOMS
500
ITEM: BOX BOUNDS pp pp pp
0 1
0 1
0 1
ITEM: ATOMS id x y z E
0 0.0499547 0.0501825 0.0499852 0.0761248
1 0.0500576 0.150012 0.149885 0.0761248
2 0.149887 0.0499936 0.149904 0.0761248
3 0.150098 0.150003 0.0499231 0.0761248
4 0.0498768 0.0499444 0.249957 0.0761248
5 0.0499727 0.150126 0.349952 0.0761248
6 0.149934 0.0498676 0.349982 0.0761248
7 0.149992 0.150087 0.250172 0.0761248
8 0.0501093 0.0500515 0.450034 0.0761248
9 0.0498852 0.150276 0.550127 0.0761248
10 0.150003 0.0500462 0.550118 0.0761248
11 0.149991 0.14997 0.449976 0.0761248
12 0.0498792 0.0498707 0.650054 0.0761248
13 0.0497917 0.149942 0.750147 0.0761248
14 0.149805 0.0500939 0.749999 0.0761248
15 0.150066 0.149887 0.650082 0.0761248
16 0.0499311 0.0499978 0.850065 0.0761248
17 0.0500624 0.149964 0.950076 0.0761248
18 0.150034 0.0500662 0.950029 0.0761248
19 0.1501 0.150025 0.849968 0.0761248
20 0.049999 0.250074 0.0500822 0.0761248
21 0.0501702 0.349939 0.150009 0.0761248
22 0.150158 0.249928 0.150108 0.0761248
23 0.150078 0.350006 0.049819 0.0761248
24 0.0499975 0.250045 0.249861 0.0761248
25 0.0500199 0.350041 0.350047 0.0761248
26 0.150137 0.249937 0.349855 0.0761248
27 0.150132 0.350147 0.250053 0.0761248
28 0.0500947 0.250108 0.449979 0.0761248
29 0.0499428 0.349932 0.549915 0.0761248
30 0.15001 0.250022 0.550011 0.0761248
31 0.150084 0.349909 0.449983 0.0761248
32 0.0498775 0.250051 0.64998 0.0761248
33 0.0497643 0.349781 0.749967 0.0761248
34 0.150074 0.25005 0.750194 0.0761248
35 0.150072 0.349828 0.650091 0.0761248
36 0.0500224 0.250061 0.8499 0.0761248
37 0.0500272 0.349953 0.95013 0.0761248
38 0.149987 0.250082 0.950106 0.0761248
39 0.149986 0.349993 0.850188 0.0761248
40 0.0501414 0.449982 0.0500717 0.0761248
41 0.0501288 0.550015 0.149762 0.0761248
42 0.149967 0.449984 0.149986 0.0761248
43 0.15009 0.550087 0.0498717 0.0761248
44 0.0501024 0.450064 0.249821 0.0761248
45 0.0498338 0.550207 0.3501 0.0761248
46 0.149994 0.449946 0.349993 0.0761248
47 0.150084 0.550077 0.250021 0.0761248
48 0.0500522 0.449881 0.449979 0.0761248
49 0.0500406 0.550127 0.550116 0.0761248
50 0.150083 0.449979 0.549948 0.0761248
51 0.149958 0.549994 0.449881 0.0761248
52 0.0499469 0.450127 0.649951 0.0761248
53 0.0499795 0.549934 0.750013 0.0761248
54 0.149927 0.449928 0.750027 0.0761248
55 0.150053 0.550024 0.650074 0.0761248
56 0.049954 0.449839 0.850051 0.0761248
57 0.0499905 0.549954 0.950103 0.0761248
58 0.150071 0.450098 0.95004 0.0761248
59 0.149949 0.55015 0.850074 0.0761248
60 0.0500074 0.649807 0.0500432 0.0761248
61 0.0498664 0.750042 0.149947 0.0761248
62 0.150114 0.650168 0.15002 0.0761248
63 0.149901 0.750016 0.0500388 0.0761248
64 0.0501235 0.650108 0.250031 0.0761248
65 0.0498866 0.750039 0.350213 0.0761248
66 0.150022 0.64991 0.350024 0.0761248
67 0.149972 0.749935 0.250082 0.0761248
68 0.0499228 0.650124 0.449962 0.0761248
69 0.0501956 0.75014 0.54989 0.0761248
70 0.149953 0.650091 0.550066 0.0761248
71 0.150116 0.749954 0.450312 0.0761248
72 0.0501828 0.650141 0.649879 0.0761248
73 0.0502065 0.749923 0.749973 0.0761248
74 0.149856 0.649994 0.750116 0.0761248
75 0.149898 0.750212 0.649996 0.0761248
76 0.049938 0.649834 0.850063 0.0761248
77 0.0499233 0.749748 0.949946 0.0761248
78 0.149955 0.649869 0.94998 0.0761248
79 0.149892 0.750017 0.849964 0.0761248
80 0.0498399 0.850043 0.0501957 0.0761248
81 0.0498828 0.95007 0.150034 0.0761248
82 0.149955 0.849924 0.150152 0.0761248
83 0.150159 0.949944 0.0500603 0.0761248
84 0.0499683 0.850082 0.24999 0.0761248
85 0.0498903 0.950074 0.350071 0.0761248
86 0.15009 0.850039 0.349836 0.0761248
87 0.149921 0.949924 0.25009 0.0761248
88 0.0501059 0.849853 0.45001 0.0761248
89 0.0499491 0.949988 0.550102 0.0761248
90 0.149901 0.849985 0.549923 0.0761248
91 0.149947 0.950024 0.449942 0.0761248
92 0.0498433 0.849761 0.650071 0.0761248
93 0.0498795 0.949893 0.749974 0.0761248
94 0.149961 0.849913 0.750037 0.0761248
95 0.15005 0.94991 0.649988 0.0761248
96 0.0501692 0.849982 0.849982 0.0761248
97 0.0499115 0.949956 0.949855 0.0761248
98 0.149977 0.850051 0.94991 0.0761248
99 0.149964 0.949888 0.849922 0.0761248
100 0.249904 0.0501202 0.0498985 0.0761248
101 0.249953 0.150027 0.149834 0.0761248
102 0.349919 0.0499524 0.15003 0.0761248
103 0.349957 0.15 0.0498343 0.0761248
104 0.249906 0.049983 0.250105 0.0761248
105 0.250037 0.150114 0.34994 0.0761248
106 0.350053 0.0499623 0.349955 0.0761248
107 0.350167 0.149892 0.250083 0.0761248
108 0.250003 0.0499319 0.449911 0.0761248
109 0.24991 0.150054 0.550103 0.0761248
110 0.349957 0.0500555 0.549934 0.0761248
111 0.350137 0.150088 0.449899 0.0761248
112 0.250162 0.0500622 0.649941 0.0761248
113 0.250179 0.15007 0.749834 0.0761248
114 0.349963 0.0500292 0.750015 0.0761248
115 0.349879 0.150023 0.650131 0.0761248
116 0.249915 0.0500518 0.850038 0.0761248
117 0.250057 0.150021 0.950056 0.0761248
118 0.350092 0.0500105 0.949919 0.0761248
119 0.349985 0.149966 0.850074 0.0761248
120 0.249983 0.250036 0.0498561 0.0761248
121 0.250156 0.350006 0.150152 0.0761248
122 0.349817 0.250008 0.15009 0.0761248
123 0.350078 0.350038 0.0498869 0.0761248
124 0.250092 0.2499 0.250108 0.0761248
125 0.25006 0.349957 0.349916 0.0761248
126 0.350155 0.24986 0.350053 0.0761248
127 0.349987 0.350073 0.249951 0.0761248
128 0.250067 0.249997 0.450023 0.0761248
129 0.249969 0.349939 0.550021 0.0761248
130 0.350072 0.249963 0.550036 0.0761248
131 0.349873 0.349965 0.449877 0.0761248
132 0.249978 0.24996 0.649926 0.0761248
133 0.249944 0.350085 0.749885 0.0761248
134 0.350142 0.249989 0.749943 0.0761248
135 0.349959 0.34992 0.65006 0.0761248
136 0.250112 0.250149 0.850006 0.0761248
137 0.249828 0.35003 0.949983 0.0761248
138 0.35013 0.250026 0.949784 0.0761248
139 0.349918 0.350057 0.850005 0.0761248
140 0.249967 0.44998 0.0499737 0.0761248
141 0.249903 0.550168 0.149938 0.0761248
142 0.350141 0.450047 0.150046 0.0761248
143 0.350004 0.549869 0.0499643 0.0761248
144 0.250054 0.449885 0.250015 0.0761248
145 0.249976 0.549983 0.349997 0.0761248
146 0.35022 0.450003 0.350127 0.0761248
147 0.349961 0.549771 0.250032 0.0761248
148 0.250113 0.450021 0.450158 0.0761248
149 0.249774 0.550043 0.55005 0.0761248
150 0.350079 0.450006 0.549906 0.0761248
151 0.350053 0.550183 0.450195 0.0761248
152 0.250001 0.44987 0.649952 0.0761248
153 0.249974 0.55 0.749952 0.0761248
154 0.350108 0.44999 0.749955 0.0761248
155 0.349919 0.549916 0.650047 0.0761248
156 0.250022 0.450006 0.850014 0.0761248
157 0.250093 0.550012 0.949953 0.0761248
158 0.350142 0.4501 0.949819 0.0761248
159 0.350011 0.54986 0.849985 0.0761248
160 0.24987 0.650004 0.0499514 0.0761248
161 0.250073 0.74998 0.149985 0.0761248
162 0.349829 0.649946 0.149996 0.0761248
163 0.349972 0.749938 0.0500435 0.0761248
164 0.250094 0.650349 0.249976 0.0761248
165 0.249971 0.750024 0.349817 0.0761248
166 0.349914 0.65008 0.350094 0.0761248
167 0.35005 0.749968 0.250198 0.0761248
168 0.249982 0.650007 0.450153 0.0761248
169 0.249992 0.750096 0.550005 0.0761248
170 0.350099 0.64997 0.550077 0.0761248
171 0.34987 0.750006 0.450011 0.0761248
172 0.249932 0.650071 0.649961 0.0761248
173 0.24993 0.749847 0.749908 0.0761248
174 0.349881 0.650025 0.749876 0.0761248
175 0.349944 0.750045 0.649851 0.0761248
176 0.249805 0.649832 0.850038 0.0761248
177 0.25001 0.749932 0.950243 0.0761248
178 0.350085 0.649954 0.950161 0.0761248
179 0.350025 0.749937 0.850057 0.0761248
180 0.24995 0.850104 0.0499745 0.0761248
181 0.250043 0.950056 0.14996 0.0761248
182 0.35002 0.850068 0.150079 0.0761248
183 0.349858 0.949945 0.0498738 0.0761248
184 0.249798 0.849891 0.249876 0.0761248
185 0.250186 0.949835 0.349919 0.0761248
186 0.350066 0.850071 0.349848 0.0761248
187 0.349997 0.9502 0.250137 0.0761248
188 0.250098 0.849958 0.450202 0.0761248
189 0.250187 0.949983 0.549955 0.0761248
190 0.349998 0.849883 0.550019 0.0761248
191 0.350051 0.949989 0.450096 0.0761248
192 0.24995 0.849983 0.65006 0.0761248
193 0.249984 0.949868 0.75003 0.0761248
194 0.349958 0.849977 0.750023 0.0761248
195 0.349895 0.950016 0.649929 0.0761248
196 0.250023 0.849991 0.849905 0.0761248
197 0.249912 0.949769 0.949986 0.0761248
198 0.349954 0.84995 0.950049 0.0761248
199 0.349967 0.950068 0.850067 0.0761248
200 0.449883 0.0499861 0.0500725 0.0761248
201 0.450001 0.149931 0.149987 0.0761248
202 0.550004 0.0500505 0.149903 0.0761248
203 0.549874 0.150106 0.0499091 0.0761248
204 0.449908 0.050034 0.249857 0.0761248
205 0.450155 0.149904 0.350016 0.0761248
206 0.549993 0.0500409 0.350161 0.0761248
207 0.549998 0.149911 0.249928 0.0761248
208 0.450123 0.0499901 0.449828 0.0761248
209 0.450138 0.150079 0.550105 0.0761248
210 0.549875 0.0499313 0.550025 0.0761248
211 0.550004 0.149948 0.449971 0.0761248
212 0.450004 0.0500773 0.650097 0.0761248
213 0.45001 0.149958 0.750171 0.0761248
214 0.549848 0.0498687 0.749835 0.0761248
215 0.549973 0.149933 0.650196 0.0761248
216 0.449997 0.0499477 0.850102 0.0761248
217 0.449928 0.14989 0.950018 0.0761248
218 0.549835 0.0500108 0.949813 0.0761248
219 0.549949 0.149918 0.849902 0.0761248
220 0.449954 0.249967 0.0499279 0.0761248
221 0.449962 0.349928 0.150034 0.0761248
222 0.550153 0.250096 0.150061 0.0761248
223 0.549944 0.350196 0.0499453 0.0761248
224 0.44982 0.250068 0.249997 0.0761248
225 0.449935 0.349869 0.349823 0.0761248
226 0.550105 0.250202 0.35001 0.0761248
227 0.549902 0.350021 0.25001 0.0761248
228 0.450024 0.250193 0.450168 0.0761248
229 0.450029 0.349934 0.550168 0.0761248
230 0.550077 0.250005 0.549987 0.0761248
231 0.549795 0.349922 0.450032 0.0761248
232 0.450009 0.249899 0.649909 0.0761248
233 0.450198 0.350055 0.749952 0.0761248
234 0.549893 0.250155 0.749953 0.0761248
235 0.55008 0.350014 0.650136 0.0761248
236 0.4499 0.25002 0.849993 0.0761248
237 0.450062 0.349831 0.949927 0.0761248
238 0.550211 0.25013 0.950098 0.0761248
239 0.549888 0.349887 0.849918 0.0761248
240 0.449914 0.449816 0.0499618 0.0761248
241 0.449837 0.550174 0.149836 0.0761248
242 0.549738 0.450041 0.149987 0.0761248
243 0.549914 0.549987 0.0499221 0.0761248
244 0.450092 0.450046 0.249938 0.0761248
245 0.450163 0.549975 0.349894 0.0761248
246 0.549961 0.449844 0.34991 0.0761248
247 0.550175 0.549854 0.249939 0.0761248
248 0.450001 0.450139 0.450102 0.0761248
249 0.450101 0.550045 0.549963 0.0761248
250 0.549809 0.449933 0.550046 0.0761248
251 0.550037 0.549933 0.449957 0.0761248
252 0.44994 0.449912 0.649984 0.0761248
253 0.450098 0.550067 0.749923 0.0761248
254 0.549995 0.449886 0.749897 0.0761248
255 0.550094 0.550026 0.650049 0.0761248
256 0.449996 0.449997 0.850123 0.0761248
257 0.450025 0.55011 0.949917 0.0761248
258 0.5501 0.450069 0.950005 0.0761248
259 0.549867 0.550028 0.850028 0.0761248
260 0.449991 0.650094 0.0501705 0.0761248
261 0.449922 0.750195 0.150029 0.0761248
262 0.549941 0.649957 0.150083 0.0761248
263 0.54978 0.750016 0.0499403 0.0761248
264 0.450118 0.649882 0.249893 0.0761248
265 0.450064 0.749845 0.350209 0.0761248
266 0.549888 0.650055 0.349938 0.0761248
267 0.549996 0.750055 0.249696 0.0761248
268 0.450057 0.64995 0.449903 0.0761248
269 0.449915 0.750012 0.550032 0.0761248
270 0.550109 0.650015 0.550022 0.0761248
271 0.550012 0.749976 0.449863 0.0761248
272 0.450078 0.649956 0.649749 0.0761248
273 0.450061 0.750036 0.750061 0.0761248
274 0.550043 0.649741 0.75001 0.0761248
275 0.550187 0.750116 0.650087 0.0761248
276 0.450048 0.649965 0.850069 0.0761248
277 0.449863 0.75003 0.950039 0.0761248
278 0.550028 0.650054 0.949719 0.0761248
279 0.549932 0.7499 0.850023 0.0761248
280 0.450134 0.849991 0.0501035 0.0761248
281 0.449915 0.949743 0.150069 0.0761248
282 0.549971 0.850086 0.149943 0.0761248
283 0.549871 0.950013 0.0500339 0.0761248
284 0.449903 0.850155 0.24982 0.0761248
285 0.450004 0.949855 0.35002 0.0761248
286 0.549915 0.849924 0.350053 0.0761248
287 0.549956 0.949903 0.250004 0.0761248
288 0.450132 0.849974 0.450008 0.0761248
289 0.450099 0.950132 0.549871 0.0761248
290 0.549967 0.84988 0.550072 0.0761248
291 0.54984 0.949949 0.449909 0.0761248
292 0.4501 0.850204 0.650157 0.0761248
293 0.450156 0.950027 0.75012 0.0761248
294 0.550027 0.849732 0.74996 0.0761248
295 0.550023 0.950118 0.649938 0.0761248
296 0.45014 0.850039 0.849992 0.0761248
297 0.449909 0.949962 0.949974 0.0761248
298 0.550029 0.85 0.949898 0.0761248
299 0.550128 0.949804 0.850063 0.0761248
300 0.649943 0.0500481 0.050069 0.0761248
301 0.649802 0.149893 0.150006 0.0761248
302 0.75006 0.0500654 0.150057 0.0761248
303 0.750078 0.14977 0.0501503 0.0761248
304 0.650091 0.050022 0.250046 0.0761248
305 0.649958 0.149832 0.349799 0.0761248
306 0.750143 0.0499896 0.349992 0.0761248
307 0.750191 0.150072 0.250013 0.0761248
308 0.649944 0.0500231 0.449985 0.0761248
309 0.650112 0.149934 0.550008 0.0761248
310 0.750135 0.0499211 0.550059 0.0761248
311 0.749859 0.149948 0.45015 0.0761248
312 0.650057 0.0499299 0.649969 0.0761248
313 0.649848 0.14993 0.749764 0.0761248
314 0.750034 0.0498625 0.750147 0.0761248
315 0.750071 0.149966 0.649988 0.0761248
316 0.649941 0.0500216 0.849934 0.0761248
317 0.649983 0.149758 0.950164 0.0761248
318 0.750098 0.0501404 0.949938 0.0761248
319 0.749973 0.149873 0.849912 0.0761248
320 0.650066 0.249943 0.0500714 0.0761248
321 0.649897 0.34997 0.150131 0.0761248
322 0.75014 0.249934 0.150032 0.0761248
323 0.749907 0.35004 0.0498589 0.0761248
324 0.650073 0.249887 0.249937 0.0761248
325 0.650054 0.34988 0.349888 0.0761248
326 0.749893 0.249939 0.350129 0.0761248
327 0.75008 0.350023 0.250022 0.0761248
328 0.649858 0.24999 0.449998 0.0761248
329 0.65011 0.349867 0.549744 0.0761248
330 0.75004 0.250085 0.55 0.0761248
331 0.750062 0.349888 0.449995 0.0761248
332 0.649974 0.249957 0.650046 0.0761248
333 0.649939 0.35 0.750143 0.0761248
334 0.750082 0.249992 0.750008 0.0761248
335 0.750122 0.349815 0.650072 0.0761248
336 0.650124 0.250052 0.849993 0.0761248
337 0.650099 0.349984 0.950119 0.0761248
338 0.750063 0.249838 0.949882 0.0761248
339 0.750098 0.349895 0.849966 0.0761248
340 0.649845 0.450101 0.0501122 0.0761248
341 0.649783 0.549995 0.15005 0.0761248
342 0.750135 0.45014 0.149894 0.0761248
343 0.750102 0.550096 0.0500482 0.0761248
344 0.650143 0.450149 0.250026 0.0761248
345 0.650008 0.550043 0.35024 0.0761248
346 0.750224 0.449982 0.350044 0.0761248
347 0.749973 0.549809 0.250099 0.0761248
348 0.650019 0.450004 0.450032 0.0761248
349 0.650156 0.549886 0.550015 0.0761248
350 0.750044 0.449982 0.549959 0.0761248
351 0.749927 0.5501 0.449998 0.0761248
352 0.650005 0.44995 0.649888 0.0761248
353 0.650038 0.550083 0.749895 0.0761248
354 0.750093 0.450163 0.750083 0.0761248
355 0.749977 0.550061 0.649999 0.0761248
356 0.64986 0.45011 0.849949 0.0761248
357 0.649916 0.549994 0.950096 0.0761248
358 0.749993 0.450268 0.949894 0.0761248
359 0.7499 0.549975 0.850206 0.0761248
360 0.65012 0.649962 0.0498552 0.0761248
361 0.649833 0.749989 0.149716 0.0761248
362 0.749906 0.649976 0.150015 0.0761248
363 0.749938 0.749976 0.0499959 0.0761248
364 0.649902 0.650122 0.249943 0.0761248
365 0.650108 0.749881 0.350129 0.0761248
366 0.749993 0.649915 0.35007 0.0761248
367 0.749998 0.75013 0.250112 0.0761248
368 0.649907 0.649972 0.450064 0.0761248
369 0.649694 0.750135 0.549926 0.0761248
370 0.749969 0.649959 0.550134 0.0761248
371 0.749907 0.749933 0.449897 0.0761248
372 0.65005 0.649895 0.649911 0.0761248
373 0.650117 0.750027 0.74997 0.0761248
374 0.749959 0.649884 0.749858 0.0761248
375 0.749925 0.74998 0.649942 0.0761248
376 0.650085 0.64988 0.850071 0.0761248
377 0.649795 0.749874 0.950043 0.0761248
378 0.750041 0.649998 0.95012 0.0761248
379 0.749895 0.750023 0.849976 0.0761248
380 0.649823 0.84993 0.0501689 0.0761248
381 0.650084 0.949959 0.150085 0.0761248
382 0.750169 0.849931 0.150035 0.0761248
383 0.750012 0.950057 0.0501675 0.0761248
384 0.649933 0.850129 0.249999 0.0761248
385 0.649865 0.950117 0.349911 0.0761248
386 0.750025 0.849921 0.350001 0.0761248
387 0.749907 0.949934 0.250019 0.0761248
388 0.650202 0.849836 0.449908 0.0761248
389 0.650138 0.949941 0.550035 0.0761248
390 0.749868 0.850032 0.549914 0.0761248
391 0.750007 0.950201 0.449919 0.0761248
392 0.64999 0.849967 0.64991 0.0761248
393 0.649888 0.949991 0.750086 0.0761248
394 0.750118 0.850002 0.749901 0.0761248
395 0.750093 0.950102 0.650019 0.0761248
396 0.650231 0.849933 0.849973 0.0761248
397 0.64993 0.949951 0.95013 0.0761248
398 0.749927 0.849986 0.949981 0.0761248
399 0.750115 0.950042 0.849839 0.0761248
400 0.849886 0.0503157 0.050101 0.0761248
401 0.850137 0.150003 0.149881 0.0761248
402 0.950085 0.0500448 0.149752 0.0761248
403 0.950093 0.150134 0.0498989 0.0761248
404 0.849998 0.0499435 0.249816 0.0761248
405 0.850123 0.150085 0.349967 0.0761248
406 0.949994 0.0500313 0.349796 0.0761248
407 0.949939 0.149947 0.249839 0.0761248
408 0.849977 0.0498764 0.449957 0.0761248
409 0.849973 0.149994 0.549829 0.0761248
410 0.949849 0.0500623 0.550002 0.0761248
411 0.949923 0.149832 0.450084 0.0761248
412 0.85001 0.0500056 0.649961 0.0761248
413 0.849954 0.150127 0.749966 0.0761248
414 0.949996 0.0499161 0.750012 0.0761248
415 0.949905 0.149999 0.650189 0.0761248
416 0.850067 0.0499978 0.849954 0.0761248
417 0.849858 0.150166 0.950026 0.0761248
418 0.949956 0.0499841 0.949876 0.0761248
419 0.950095 0.15002 0.850027 0.0761248
420 0.850083 0.250065 0.0499857 0.0761248
421 0.849985 0.349861 0.150133 0.0761248
422 0.949899 0.249701 0.150115 0.0761248
423 0.949909 0.349903 0.0499994 0.0761248
424 0.849948 0.250176 0.249862 0.0761248
425 0.849985 0.35016 0.349883 0.0761248
426 0.950056 0.250164 0.349917 0.0761248
427 0.949946 0.349955 0.249812 0.0761248
428 0.850019 0.249935 0.450156 0.0761248
429 0.849978 0.350106 0.550072 0.0761248
430 0.950186 0.249886 0.550007 0.0761248
431 0.949873 0.350004 0.449998 0.0761248
432 0.850113 0.249972 0.649971 0.0761248
433 0.85017 0.350057 0.749976 0.0761248
434 0.950137 0.250107 0.750258 0.0761248
435 0.949972 0.350104 0.650005 0.0761248
436 0.850048 0.250071 0.849844 0.0761248
437 0.850015 0.350053 0.950064 0.0761248
438 0.950066 0.249678 0.949958 0.0761248
439 0.950004 0.349966 0.850201 0.0761248
440 0.849783 0.449995 0.0502157 0.0761248
441 0.850056 0.550134 0.149884 0.0761248
442 0.949869 0.450002 0.150068 0.0761248
443 0.950043 0.550056 0.0499953 0.0761248
444 0.850144 0.449991 0.250041 0.0761248
445 0.850136 0.549962 0.350101 0.0761248
446 0.949895 0.450135 0.349931 0.0761248
447 0.950018 0.5499 0.250024 0.0761248
448 0.849894 0.449944 0.449888 0.0761248
449 0.849993 0.550039 0.549928 0.0761248
450 0.950002 0.450092 0.549977 0.0761248
451 0.950033 0.550106 0.450143 0.0761248
452 0.849832 0.449993 0.650123 0.0761248
453 0.849969 0.550125 0.750113 0.0761248
454 0.949927 0.450014 0.750015 0.0761248
455 0.949943 0.550036 0.649889 0.0761248
456 0.849955 0.449912 0.850009 0.0761248
457 0.849966 0.549925 0.950073 0.0761248
458 0.95009 0.44993 0.950073 0.0761248
459 0.949782 0.549937 0.850108 0.0761248
460 0.849948 0.649799 0.0499386 0.0761248
461 0.849844 0.749793 0.150102 0.0761248
462 0.950038 0.650016 0.150018 0.0761248
463 0.950087 0.750055 0.0499128 0.0761248
464 0.850032 0.649981 0.249893 0.0761248
465 0.849983 0.750113 0.350116 0.0761248
466 0.949939 0.650161 0.350018 0.0761248
467 0.950038 0.750062 0.249936 0.0761248
468 0.850024 0.649909 0.450101 0.0761248
469 0.850098 0.750077 0.549904 0.0761248
470 0.95005 0.649929 0.55009 0.0761248
471 0.949905 0.750167 0.450076 0.0761248
472 0.849861 0.650069 0.650227 0.0761248
473 0.850162 0.750103 0.750029 0.0761248
474 0.950014 0.650062 0.749972 0.0761248
475 0.950121 0.749968 0.650001 0.0761248