ITEM: TIMESTEP
0
ITEM: NUMBER OF ATOMS
2
ITEM: BOX BOUNDS pp pp pp
0 1
0 1
0 1
ITEM: ATOMS id x y z E
0 0.93021 0.5 0.5 -0.444363
1 0.0697903 0.5 0.5 -0.444363
ITEM: TIMESTEP
0.005
ITEM: NUMBER OF ATOMS
2
ITEM: BOX BOUNDS pp pp pp
0 1
0 1
0 1
ITEM: ATOMS id x y z E
0 0.930844 0.5 0.5 -0.444349
1 0.0691555 0.5 0.5 -0.444349
ITEM: TIMESTEP
0.01
ITEM: NUMBER OF ATOMS
2
ITEM: BOX BOUNDS pp pp pp
0 1
0 1
0 1
ITEM: ATOMS id x y z E
0 0.931923 0.5 0.5 -0.444344
1 0.0680769 0.5 0.5 -0.444344
ITEM: TIMESTEP
0.015
ITEM: NUMBER OF ATOMS
2
ITEM: BOX BOUNDS pp pp pp
0 1
0 1
0 1
ITEM: ATOMS id x y z E
0 0.933477 0.5 0.5 -0.444325
1 0.0665226 0.5 0.5 -0.444325
ITEM: TIMESTEP
0.02
ITEM: NUMBER OF ATOMS
2
ITEM: BOX BOUNDS pp pp pp
0 1
0 1
0 1
ITEM: ATOMS id x y z E
0 0.935551 0.5 0.5 -0.444301
1 0.0644478 0.5 0.5 -0.444301
ITEM: TIMESTEP
0.025
ITEM: NUMBER OF ATOMS
2
ITEM: BOX BOUNDS pp pp pp
0 1
0 1
0 1
ITEM: ATOMS id x y z E
0 0.938197 0.5 0.5 -0.444289
1 0.0618025 0.5 0.5 -0.444289
ITEM: TIMESTEP
0.03
ITEM: NUMBER OF ATOMS
2
ITEM: BOX BOUNDS pp pp pp
0 1
0 1
0 1
ITEM: ATOMS id x y z E
0 0.941427 0.5 0.5 -0.444295
1 0.0585725 0.5 0.5 -0.444295
ITEM: TIMESTEP
0.035
ITEM: NUMBER OF ATOMS
2
ITEM: BOX BOUNDS pp pp pp
0 1
0 1
0 1
ITEM: ATOMS id x y z E
0 0.945051 0.5 0.5 -0.444415
1 0.0549505 0.5 0.5 -0.444415
ITEM: TIMESTEP
0.04
ITEM: NUMBER OF ATOMS
2
ITEM: BOX BOUNDS pp pp pp
0 1
0 1
0 1
ITEM: ATOMS id x y z E
0 0.948111 0.5 0.5 -0.444588
1 0.0518895 0.5 0.5 -0.444588
ITEM: TIMESTEP
0.045
ITEM: NUMBER OF ATOMS
2
ITEM: BOX BOUNDS pp pp pp
0 1
0 1
0 1
ITEM: ATOMS id x y z E
0 0.948537 0.5 0.5 -0.444219
1 0.0514648 0.5 0.5 -0.444219
ITEM: TIMESTEP
0.05
ITEM: NUMBER OF ATOMS
2
ITEM: BOX BOUNDS pp pp pp
0 1
0 1
0 1
ITEM: ATOMS id x y z E
0 0.945912 0.5 0.5 -0.444295
1 0.0540892 0.5 0.5 -0.444295
ITEM: TIMESTEP
0.055
ITEM: NUMBER OF ATOMS
2
ITEM: BOX BOUNDS pp pp pp
0 1
0 1
0 1
ITEM: ATOMS id x y z E
0 0.94229 0.5 0.5 -0.444456
1 0.0577103 0.5 0.5 -0.444456
ITEM: TIMESTEP
0.06
ITEM: NUMBER OF ATOMS
2
ITEM: BOX BOUNDS pp pp pp
0 1
0 1
0 1
ITEM: ATOMS id x y z E
0 0.938931 0.5 0.5 -0.44448
1 0.0610689 0.5 0.5 -0.44448
ITEM: TIMESTEP
0.065
ITEM: NUMBER OF ATOMS
2
ITEM: BOX BOUNDS pp pp pp
0 1
0 1
0 1
ITEM: ATOMS id x y z E
0 0.936142 0.5 0.5 -0.444467
1 0.0638583 0.5 0.5 -0.444467
ITEM: TIMESTEP
0.07
ITEM: NUMBER OF ATOMS
2
ITEM: BOX BOUNDS pp pp pp
0 1
0 1
0 1
ITEM: ATOMS id x y z E
0 0.933932 0.5 0.5 -0.444438
1 0.0660674 0.5 0.5 -0.444438
ITEM: TIMESTEP
0.075
ITEM: NUMBER OF ATOMS
2
ITEM: BOX BOUNDS pp pp pp
0 1
0 1
0 1
ITEM: ATOMS id x y z E
0 0.932257 0.5 0.5 -0.44444
1 0.0677437 0.5 0.5 -0.44444
ITEM: TIMESTEP
0.08
ITEM: NUMBER OF ATOMS
2
ITEM: BOX BOUNDS pp pp pp
0 1
0 1
0 1
ITEM: ATOMS id x y z E
0 0.931066 0.5 0.5 -0.444429
1 0.0689343 0.5 0.5 -0.444429
ITEM: TIMESTEP
0.085
ITEM: NUMBER OF ATOMS
2
ITEM: BOX BOUNDS pp pp pp
0 1
0 1
0 1
ITEM: ATOMS id x y z E
0 0.930326 0.5 0.5 -0.44442
1 0.0696747 0.5 0.5 -0.44442
ITEM: TIMESTEP
0.09
ITEM: NUMBER OF ATOMS
2
ITEM: BOX BOUNDS pp pp pp
0 1
0 1
0 1
ITEM: ATOMS id x y z E
0 0.930014 0.5 0.5 -0.44441
1 0.0699866 0.5 0.5 -0.44441
ITEM: TIMESTEP
0.095
ITEM: NUMBER OF ATOMS
2
ITEM: BOX BOUNDS pp pp pp
0 1
0 1
0 1
ITEM: ATOMS id x y z E
0 0.930121 0.5 0.5 -0.444401
1 0.0698791 0.5 0.5 -0.444401
ITEM: TIMESTEP
0.1
ITEM: NUMBER OF ATOMS
2
ITEM: BOX BOUNDS pp pp pp
0 1
0 1
0 1
ITEM: ATOMS id x y z E
0 0.93065 0.5 0.5 -0.444383
1 0.0693491 0.5 0.5 -0.444383
ITEM: TIMESTEP
0.105
ITEM: NUMBER OF ATOMS
2
ITEM: BOX BOUNDS pp pp pp
0 1
0 1
0 1
ITEM: ATOMS id x y z E
0 0.93162 0.5 0.5 -0.444391
1 0.0683811 0.5 0.5 -0.444391
ITEM: TIMESTEP
0.11
ITEM: NUMBER OF ATOMS
2
ITEM: BOX BOUNDS pp pp pp
0 1
0 1
0 1
ITEM: ATOMS id x y z E
0 0.933054 0.5 0.5 -0.444376
1 0.0669463 0.5 0.5 -0.444376
ITEM: TIMESTEP
0.115
ITEM: NUMBER OF ATOMS
2
ITEM: BOX BOUNDS pp pp pp
0 1
0 1
0 1
ITEM: ATOMS id x y z E
0 0.934998 0.5 0.5 -0.444362
1 0.0650028 0.5 0.5 -0.444362
ITEM: TIMESTEP
0.12
ITEM: NUMBER OF ATOMS
2
ITEM: BOX BOUNDS pp pp pp
0 1
0 1
0 1
ITEM: ATOMS id x y z E
0 0.9375 0.5 0.5 -0.444348
1 0.0625003 0.5 0.5 -0.444348
ITEM: TIMESTEP
0.125
ITEM: NUMBER OF ATOMS
2
ITEM: BOX BOUNDS pp pp pp
0 1
0 1
0 1
ITEM: ATOMS id x y z E
0 0.940592 0.5 0.5 -0.444335
1 0.059408 0.5 0.5 -0.444335
ITEM: TIMESTEP
0.13
ITEM: NUMBER OF ATOMS
2
ITEM: BOX BOUNDS pp pp pp
0 1
0 1
0 1
ITEM: ATOMS id x y z E
0 0.944166 0.5 0.5 -0.444412
1 0.0558372 0.5 0.5 -0.444412
ITEM: TIMESTEP
0.135
ITEM: NUMBER OF ATOMS
2
ITEM: BOX BOUNDS pp pp pp
0 1
0 1
0 1
ITEM: ATOMS id x y z E
0 0.947523 0.5 0.5 -0.444621
1 0.0524788 0.5 0.5 -0.444621
ITEM: TIMESTEP
0.14
ITEM: NUMBER OF ATOMS
2
ITEM: BOX BOUNDS pp pp pp
0 1
0 1
0 1
ITEM: ATOMS id x y z E
0 0.948765 0.5 0.5 -0.444399
1 0.0512371 0.5 0.5 -0.444399
ITEM: TIMESTEP
0.145
ITEM: NUMBER OF ATOMS
2
ITEM: BOX BOUNDS pp pp pp
0 1
0 1
0 1
ITEM: ATOMS id x y z E
0 0.946722 0.5 0.5 -0.444301
1 0.0532798 0.5 0.5 -0.444301
ITEM: TIMESTEP
0.15
ITEM: NUMBER OF ATOMS
2
ITEM: BOX BOUNDS pp pp pp
0 1
0 1
0 1
ITEM: ATOMS id x y z E
0 0.943172 0.5 0.5 -0.444511
1 0.056829 0.5 0.5 -0.444511
ITEM: TIMESTEP
0.155
ITEM: NUMBER OF ATOMS
2
ITEM: BOX BOUNDS pp pp pp
0 1
0 1
0 1
ITEM: ATOMS id x y z E
0 0.9397 0.5 0.5 -0.444564
1 0.0603009 0.5 0.5 -0.444564
ITEM: TIMESTEP
0.16
ITEM: NUMBER OF ATOMS
2
ITEM: BOX BOUNDS pp pp pp
0 1
0 1
0 1
ITEM: ATOMS id x y z E
0 0.936767 0.5 0.5 -0.44455
1 0.0632345 0.5 0.5 -0.44455
ITEM: TIMESTEP
0.165
ITEM: NUMBER OF ATOMS
2
ITEM: BOX BOUNDS pp pp pp
0 1
0 1
0 1
ITEM: ATOMS id x y z E
0 0.93442 0.5 0.5 -0.444529
1 0.0655808 0.5 0.5 -0.444529
ITEM: TIMESTEP
0.17
ITEM: NUMBER OF ATOMS
2
ITEM: BOX BOUNDS pp pp pp
0 1
0 1
0 1
ITEM: ATOMS id x y z E
0 0.93262 0.5 0.5 -0.444522
1 0.0673816 0.5 0.5 -0.444522
ITEM: TIMESTEP
0.175
ITEM: NUMBER OF ATOMS
2
ITEM: BOX BOUNDS pp pp pp
0 1
0 1
0 1
ITEM: ATOMS id x y z E
0 0.931315 0.5 0.5 -0.44451
1 0.0686863 0.5 0.5 -0.44451
ITEM: TIMESTEP
0.18
ITEM: NUMBER OF ATOMS
2
ITEM: BOX BOUNDS pp pp pp
0 1
0 1
0 1
ITEM: ATOMS id x y z E
0 0.930467 0.5 0.5 -0.444486
1 0.0695333 0.5 0.5 -0.444486
ITEM: TIMESTEP
0.185
ITEM: NUMBER OF ATOMS
2
ITEM: BOX BOUNDS pp pp pp
0 1
0 1
0 1
ITEM: ATOMS id x y z E
0 0.930053 0.5 0.5 -0.444481
1 0.0699477 0.5 0.5 -0.444481
ITEM: TIMESTEP
0.19
ITEM: NUMBER OF ATOMS
2
ITEM: BOX BOUNDS pp pp pp
0 1
0 1
0 1
ITEM: ATOMS id x y z E
0 0.930059 0.5 0.5 -0.444474
1 0.0699416 0.5 0.5 -0.444474
ITEM: TIMESTEP
0.195
ITEM: NUMBER OF ATOMS
2
ITEM: BOX BOUNDS pp pp pp
0 1
0 1
0 1
ITEM: ATOMS id x y z E
0 0.930486 0.5 0.5 -0.444472
1 0.0695148 0.5 0.5 -0.444472
ITEM: TIMESTEP
0.2
ITEM: NUMBER OF ATOMS
2
ITEM: BOX BOUNDS pp pp pp
0 1
0 1
0 1
ITEM: ATOMS id x y z E
0 0.931346 0.5 0.5 -0.444465
1 0.0686548 0.5 0.5 -0.444465
ITEM: TIMESTEP
0.205
ITEM: NUMBER OF ATOMS
2
ITEM: BOX BOUNDS pp pp pp
0 1
0 1
0 1
ITEM: ATOMS id x y z E
0 0.932665 0.5 0.5 -0.444455
1 0.0673361 0.5 0.5 -0.444455
ITEM: TIMESTEP
0.21
ITEM: NUMBER OF ATOMS
2
ITEM: BOX BOUNDS pp pp pp
0 1
0 1
0 1
ITEM: ATOMS id x y z E
0 0.934481 0.5 0.5 -0.44444
1 0.06552 0.5 0.5 -0.44444
ITEM: TIMESTEP
0.215
ITEM: NUMBER OF ATOMS
2
ITEM: BOX BOUNDS pp pp pp
0 1
0 1
0 1
ITEM: ATOMS id x y z E
0 0.936843 0.5 0.5 -0.444406
1 0.063157 0.5 0.5 -0.444406
ITEM: TIMESTEP
0.22
ITEM: NUMBER OF ATOMS
2
ITEM: BOX BOUNDS pp pp pp
0 1
0 1
0 1
ITEM: ATOMS id x y z E
0 0.939794 0.5 0.5 -0.4444
1 0.0602061 0.5 0.5 -0.4444
ITEM: TIMESTEP
0.225
ITEM: NUMBER OF ATOMS
2
ITEM: BOX BOUNDS pp pp pp
0 1
0 1
0 1
ITEM: ATOMS id x y z E
0 0.943278 0.5 0.5 -0.444454
1 0.0567218 0.5 0.5 -0.444454
ITEM: TIMESTEP
0.23
ITEM: NUMBER OF ATOMS
2
ITEM: BOX BOUNDS pp pp pp
0 1
0 1
0 1
ITEM: ATOMS id x y z E
0 0.946815 0.5 0.5 -0.444662
1 0.0531872 0.5 0.5 -0.444662
ITEM: TIMESTEP
0.235
ITEM: NUMBER OF ATOMS
2
ITEM: BOX BOUNDS pp pp pp
0 1
0 1
0 1
ITEM: ATOMS id x y z E
0 0.948778 0.5 0.5 -0.44455
1 0.051224 0.5 0.5 -0.44455
ITEM: TIMESTEP
0.24
ITEM: NUMBER OF ATOMS
2
ITEM: BOX BOUNDS pp pp pp
0 1
0 1
0 1
ITEM: ATOMS id x y z E
0 0.947443 0.5 0.5 -0.44434
1 0.0525598 0.5 0.5 -0.44434
ITEM: TIMESTEP
0.245
ITEM: NUMBER OF ATOMS
2
ITEM: BOX BOUNDS pp pp pp
0 1
0 1
0 1
ITEM: ATOMS id x y z E
0 0.944058 0.5 0.5 -0.444559
1 0.0559449 0.5 0.5 -0.444559
ITEM: TIMESTEP
0.25
ITEM: NUMBER OF ATOMS
2
ITEM: BOX BOUNDS pp pp pp
0 1
0 1
0 1
ITEM: ATOMS id x y z E
0 0.940495 0.5 0.5 -0.44464
1 0.0595061 0.5 0.5 -0.44464
ITEM: TIMESTEP
0.255
ITEM: NUMBER OF ATOMS
2
ITEM: BOX BOUNDS pp pp pp
0 1
0 1
0 1
ITEM: ATOMS id x y z E
0 0.93742 0.5 0.5 -0.444637
1 0.0625811 0.5 0.5 -0.444637
ITEM: TIMESTEP
0.26
ITEM: NUMBER OF ATOMS
2
ITEM: BOX BOUNDS pp pp pp
0 1
0 1
0 1
ITEM: ATOMS id x y z E
0 0.934936 0.5 0.5 -0.444625
1 0.0650661 0.5 0.5 -0.444625
ITEM: TIMESTEP
0.265
ITEM: NUMBER OF ATOMS
2
ITEM: BOX BOUNDS pp pp pp
0 1
0 1
0 1
ITEM: ATOMS id x y z E
0 0.933008 0.5 0.5 -0.44461
1 0.0669935 0.5 0.5 -0.44461
ITEM: TIMESTEP
0.27
ITEM: NUMBER OF ATOMS
2
ITEM: BOX BOUNDS pp pp pp
0 1
0 1
0 1
ITEM: ATOMS id x y z E
0 0.931588 0.5 0.5 -0.444596
1 0.0684136 0.5 0.5 -0.444596
ITEM: TIMESTEP
0.275
ITEM: NUMBER OF ATOMS
2
ITEM: BOX BOUNDS pp pp pp
0 1
0 1
0 1
ITEM: ATOMS id x y z E
0 0.930634 0.5 0.5 -0.444584
1 0.0693678 0.5 0.5 -0.444584
ITEM: TIMESTEP
0.28
ITEM: NUMBER OF ATOMS
2
ITEM: BOX BOUNDS pp pp pp
0 1
0 1
0 1
ITEM: ATOMS id x y z E
0 0.930117 0.5 0.5 -0.444582
1 0.0698846 0.5 0.5 -0.444582
ITEM: TIMESTEP
0.285
ITEM: NUMBER OF ATOMS
2
ITEM: BOX BOUNDS pp pp pp
0 1
0 1
0 1
ITEM: ATOMS id x y z E
0 0.930023 0.5 0.5 -0.444574
1 0.069979 0.5 0.5 -0.444574
ITEM: TIMESTEP
0.29
ITEM: NUMBER OF ATOMS
2
ITEM: BOX BOUNDS pp pp pp
0 1
0 1
0 1
ITEM: ATOMS id x y z E
0 0.930348 0.5 0.5 -0.444566
1 0.0696537 0.5 0.5 -0.444566
ITEM: TIMESTEP
0.295
ITEM: NUMBER OF ATOMS
2
ITEM: BOX BOUNDS pp pp pp
0 1
0 1
0 1
ITEM: ATOMS id x y z E
0 0.931102 0.5 0.5 -0.44455
1 0.0688993 0.5 0.5 -0.44455
ITEM: TIMESTEP
0.3
ITEM: NUMBER OF ATOMS
2
ITEM: BOX BOUNDS pp pp pp
0 1
0 1
0 1
ITEM: ATOMS id x y z E
0 0.932308 0.5 0.5 -0.444545
1 0.0676936 0.5 0.5 -0.444545
ITEM: TIMESTEP
0.305
ITEM: NUMBER OF ATOMS
2
ITEM: BOX BOUNDS pp pp pp
0 1
0 1
0 1
ITEM: ATOMS id x y z E
0 0.934001 0.5 0.5 -0.444529
1 0.0660008 0.5 0.5 -0.444529
ITEM: TIMESTEP
0.31
ITEM: NUMBER OF ATOMS
2
ITEM: BOX BOUNDS pp pp pp
0 1
0 1
0 1
ITEM: ATOMS id x y z E
0 0.936228 0.5 0.5 -0.444517
1 0.0637733 0.5 0.5 -0.444517
ITEM: TIMESTEP
0.315
ITEM: NUMBER OF ATOMS
2
ITEM: BOX BOUNDS pp pp pp
0 1
0 1
0 1
ITEM: ATOMS id x y z E
0 0.939037 0.5 0.5 -0.444505
1 0.0609644 0.5 0.5 -0.444505
ITEM: TIMESTEP
0.32
ITEM: NUMBER OF ATOMS
2
ITEM: BOX BOUNDS pp pp pp
0 1
0 1
0 1
ITEM: ATOMS id x y z E
0 0.942411 0.5 0.5 -0.44452
1 0.0575896 0.5 0.5 -0.44452
ITEM: TIMESTEP
0.325
ITEM: NUMBER OF ATOMS
2
ITEM: BOX BOUNDS pp pp pp
0 1
0 1
0 1
ITEM: ATOMS id x y z E
0 0.946028 0.5 0.5 -0.444688
1 0.0539743 0.5 0.5 -0.444688
ITEM: TIMESTEP
0.33
ITEM: NUMBER OF ATOMS
2
ITEM: BOX BOUNDS pp pp pp
0 1
0 1
0 1
ITEM: ATOMS id x y z E
0 0.94858 0.5 0.5 -0.444749
1 0.0514221 0.5 0.5 -0.444749
ITEM: TIMESTEP
0.335
ITEM: NUMBER OF ATOMS
2
ITEM: BOX BOUNDS pp pp pp
0 1
0 1
0 1
ITEM: ATOMS id x y z E
0 0.94804 0.5 0.5 -0.4444
1 0.0519636 0.5 0.5 -0.4444
ITEM: TIMESTEP
0.34
ITEM: NUMBER OF ATOMS
2
ITEM: BOX BOUNDS pp pp pp
0 1
0 1
0 1
ITEM: ATOMS id x y z E
0 0.94493 0.5 0.5 -0.444587
1 0.0550726 0.5 0.5 -0.444587
ITEM: TIMESTEP
0.345
ITEM: NUMBER OF ATOMS
2
ITEM: BOX BOUNDS pp pp pp
0 1
0 1
0 1
ITEM: ATOMS id x y z E
0 0.941313 0.5 0.5 -0.444699
1 0.0586892 0.5 0.5 -0.444699
ITEM: TIMESTEP
0.35
ITEM: NUMBER OF ATOMS
2
ITEM: BOX BOUNDS pp pp pp
0 1
0 1
0 1
ITEM: ATOMS id x y z E
0 0.938102 0.5 0.5 -0.444714
1 0.0618999 0.5 0.5 -0.444714
ITEM: TIMESTEP
0.355
ITEM: NUMBER OF ATOMS
2
ITEM: BOX BOUNDS pp pp pp
0 1
0 1
0 1
ITEM: ATOMS id x y z E
0 0.935478 0.5 0.5 -0.444698
1 0.0645247 0.5 0.5 -0.444698
ITEM: TIMESTEP
0.36
ITEM: NUMBER OF ATOMS
2
ITEM: BOX BOUNDS pp pp pp
0 1
0 1
0 1
ITEM: ATOMS id x y z E
0 0.933422 0.5 0.5 -0.444684
1 0.0665804 0.5 0.5 -0.444684
ITEM: TIMESTEP
0.365
ITEM: NUMBER OF ATOMS
2
ITEM: BOX BOUNDS pp pp pp
0 1
0 1
0 1
ITEM: ATOMS id x y z E
0 0.931885 0.5 0.5 -0.444666
1 0.0681172 0.5 0.5 -0.444666
ITEM: TIMESTEP
0.37
ITEM: NUMBER OF ATOMS
2
ITEM: BOX BOUNDS pp pp pp
0 1
0 1
0 1
ITEM: ATOMS id x y z E
0 0.930823 0.5 0.5 -0.444663
1 0.0691794 0.5 0.5 -0.444663
ITEM: TIMESTEP
0.375
ITEM: NUMBER OF ATOMS
2
ITEM: BOX BOUNDS pp pp pp
0 1
0 1
0 1
ITEM: ATOMS id x y z E
0 0.930204 0.5 0.5 -0.444653
1 0.0697985 0.5 0.5 -0.444653
ITEM: TIMESTEP
0.38
ITEM: NUMBER OF ATOMS
2
ITEM: BOX BOUNDS pp pp pp
0 1
0 1
0 1
ITEM: ATOMS id x y z E
0 0.93001 0.5 0.5 -0.444644
1 0.0699927 0.5 0.5 -0.444644
ITEM: TIMESTEP
0.385
ITEM: NUMBER OF ATOMS
2
ITEM: BOX BOUNDS pp pp pp
0 1
0 1
0 1
ITEM: ATOMS id x y z E
0 0.930235 0.5 0.5 -0.444634
1 0.0697677 0.5 0.5 -0.444634
ITEM: TIMESTEP
0.39
ITEM: NUMBER OF ATOMS
2
ITEM: BOX BOUNDS pp pp pp
0 1
0 1
0 1
ITEM: ATOMS id x y z E
0 0.930885 0.5 0.5 -0.444619
1 0.0691169 0.5 0.5 -0.444619
ITEM: TIMESTEP
0.395
ITEM: NUMBER OF ATOMS
2
ITEM: BOX BOUNDS pp pp pp
0 1
0 1
0 1
ITEM: ATOMS id x y z E
0 0.931981 0.5 0.5 -0.444619
1 0.0680211 0.5 0.5 -0.444619
ITEM: TIMESTEP
0.4
ITEM: NUMBER OF ATOMS
2
ITEM: BOX BOUNDS pp pp pp
0 1
0 1
0 1
ITEM: ATOMS id x y z E
0 0.933554 0.5 0.5 -0.444602
1 0.066448 0.5 0.5 -0.444602
ITEM: TIMESTEP
0.405
ITEM: NUMBER OF ATOMS
2
ITEM: BOX BOUNDS pp pp pp
0 1
0 1
0 1
ITEM: ATOMS id x y z E
0 0.93565 0.5 0.5 -0.444592
1 0.0643521 0.5 0.5 -0.444592
ITEM: TIMESTEP
0.41
ITEM: NUMBER OF ATOMS
2
ITEM: BOX BOUNDS pp pp pp
0 1
0 1
0 1
ITEM: ATOMS id x y z E
0 0.938318 0.5 0.5 -0.444576
1 0.061684 0.5 0.5 -0.444576
ITEM: TIMESTEP
0.415
ITEM: NUMBER OF ATOMS
2
ITEM: BOX BOUNDS pp pp pp
0 1
0 1
0 1
ITEM: ATOMS id x y z E
0 0.94157 0.5 0.5 -0.444592
1 0.058433 0.5 0.5 -0.444592
ITEM: TIMESTEP
0.42
ITEM: NUMBER OF ATOMS
2
ITEM: BOX BOUNDS pp pp pp
0 1
0 1
0 1
ITEM: ATOMS id x y z E
0 0.945195 0.5 0.5 -0.444719
1 0.0548082 0.5 0.5 -0.444719
ITEM: TIMESTEP
0.425
ITEM: NUMBER OF ATOMS
2
ITEM: BOX BOUNDS pp pp pp
0 1
0 1
0 1
ITEM: ATOMS id x y z E
0 0.948194 0.5 0.5 -0.444869
1 0.0518098 0.5 0.5 -0.444869
ITEM: TIMESTEP
0.43
ITEM: NUMBER OF ATOMS
2
ITEM: BOX BOUNDS pp pp pp
0 1
0 1
0 1
ITEM: ATOMS id x y z E
0 0.94848 0.5 0.5 -0.444527
1 0.0515239 0.5 0.5 -0.444527
ITEM: TIMESTEP
0.435
ITEM: NUMBER OF ATOMS
2
ITEM: BOX BOUNDS pp pp pp
0 1
0 1
0 1
ITEM: ATOMS id x y z E
0 0.945776 0.5 0.5 -0.444582
1 0.0542288 0.5 0.5 -0.444582
ITEM: TIMESTEP
0.44
ITEM: NUMBER OF ATOMS
2
ITEM: BOX BOUNDS pp pp pp
0 1
0 1
0 1
ITEM: ATOMS id x y z E
0 0.942151 0.5 0.5 -0.44476
1 0.0578532 0.5 0.5 -0.44476
ITEM: TIMESTEP
0.445
ITEM: NUMBER OF ATOMS
2
ITEM: BOX BOUNDS pp pp pp
0 1
0 1
0 1
ITEM: ATOMS id x y z E
0 0.938812 0.5 0.5 -0.444771
1 0.0611907 0.5 0.5 -0.444771
ITEM: TIMESTEP
0.45
ITEM: NUMBER OF ATOMS
2
ITEM: BOX BOUNDS pp pp pp
0 1
0 1
0 1
ITEM: ATOMS id x y z E
0 0.936047 0.5 0.5 -0.444754
1 0.0639557 0.5 0.5 -0.444754
ITEM: TIMESTEP
0.455
ITEM: NUMBER OF ATOMS
2
ITEM: BOX BOUNDS pp pp pp
0 1
0 1
0 1
ITEM: ATOMS id x y z E
0 0.933862 0.5 0.5 -0.44475
1 0.0661418 0.5 0.5 -0.44475
ITEM: TIMESTEP
0.46
ITEM: NUMBER OF ATOMS
2
ITEM: BOX BOUNDS pp pp pp
0 1
0 1
0 1
ITEM: ATOMS id x y z E
0 0.932206 0.5 0.5 -0.444726
1 0.0677969 0.5 0.5 -0.444726
ITEM: TIMESTEP
0.465
ITEM: NUMBER OF ATOMS
2
ITEM: BOX BOUNDS pp pp pp
0 1
0 1
0 1
ITEM: ATOMS id x y z E
0 0.931036 0.5 0.5 -0.444723
1 0.0689681 0.5 0.5 -0.444723
ITEM: TIMESTEP
0.47
ITEM: NUMBER OF ATOMS
2
ITEM: BOX BOUNDS pp pp pp
0 1
0 1
0 1
ITEM: ATOMS id x y z E
0 0.930313 0.5 0.5 -0.4447
1 0.0696898 0.5 0.5 -0.4447
ITEM: TIMESTEP
0.475
ITEM: NUMBER OF ATOMS
2
ITEM: BOX BOUNDS pp pp pp
0 1
0 1
0 1
ITEM: ATOMS id x y z E
0 0.93002 0.5 0.5 -0.444696
1 0.0699834 0.5 0.5 -0.444696
ITEM: TIMESTEP
0.48
ITEM: NUMBER OF ATOMS
2
ITEM: BOX BOUNDS pp pp pp
0 1
0 1
0 1
ITEM: ATOMS id x y z E
0 0.930146 0.5 0.5 -0.44469
1 0.0698575 0.5 0.5 -0.44469
ITEM: TIMESTEP
0.485
ITEM: NUMBER OF ATOMS
2
ITEM: BOX BOUNDS pp pp pp
0 1
0 1
0 1
ITEM: ATOMS id x y z E
0 0.930695 0.5 0.5 -0.44469
1 0.0693085 0.5 0.5 -0.44469
ITEM: TIMESTEP
0.49
ITEM: NUMBER OF ATOMS
2
ITEM: BOX BOUNDS pp pp pp
0 1
0 1
0 1
ITEM: ATOMS id x y z E
0 0.931683 0.5 0.5 -0.444674
1 0.0683201 0.5 0.5 -0.444674
ITEM: TIMESTEP
0.495
ITEM: NUMBER OF ATOMS
2
ITEM: BOX BOUNDS pp pp pp
0 1
0 1
0 1
ITEM: ATOMS id x y z E
0 0.93314 0.5 0.5 -0.44466
1 0.0668632 0.5 0.5 -0.44466
ITEM: TIMESTEP
0.5
ITEM: NUMBER OF ATOMS
2
ITEM: BOX BOUNDS pp pp pp
0 1
0 1
0 1
ITEM: ATOMS id x y z E
0 0.935108 0.5 0.5 -0.444645
1 0.0648952 0.5 0.5 -0.444645
ITEM: TIMESTEP
0.505
ITEM: NUMBER OF ATOMS
2
ITEM: BOX BOUNDS pp pp pp
0 1
0 1
0 1
ITEM: ATOMS id x y z E
0 0.937638 0.5 0.5 -0.444632
1 0.0623657 0.5 0.5 -0.444632
ITEM: TIMESTEP
0.51
ITEM: NUMBER OF ATOMS
2
ITEM: BOX BOUNDS pp pp pp
0 1
0 1
0 1
ITEM: ATOMS id x y z E
0 0.940757 0.5 0.5 -0.444641
1 0.0592468 0.5 0.5 -0.444641
ITEM: TIMESTEP
0.515
ITEM: NUMBER OF ATOMS
2
ITEM: BOX BOUNDS pp pp pp
0 1
0 1
0 1
ITEM: ATOMS id x y z E
0 0.944342 0.5 0.5 -0.444716
1 0.0556638 0.5 0.5 -0.444716
ITEM: TIMESTEP
0.52
ITEM: NUMBER OF ATOMS
2
ITEM: BOX BOUNDS pp pp pp
0 1
0 1
0 1
ITEM: ATOMS id x y z E
0 0.94765 0.5 0.5 -0.444932
1 0.0523545 0.5 0.5 -0.444932
ITEM: TIMESTEP
0.525
ITEM: NUMBER OF ATOMS
2
ITEM: BOX BOUNDS pp pp pp
0 1
0 1
0 1
ITEM: ATOMS id x y z E
0 0.948737 0.5 0.5 -0.444637
1 0.051267 0.5 0.5 -0.444637
ITEM: TIMESTEP
0.53
ITEM: NUMBER OF ATOMS
2
ITEM: BOX BOUNDS pp pp pp
0 1
0 1
0 1
ITEM: ATOMS id x y z E
0 0.946571 0.5 0.5 -0.44454
1 0.0534339 0.5 0.5 -0.44454
ITEM: TIMESTEP
0.535
ITEM: NUMBER OF ATOMS
2
ITEM: BOX BOUNDS pp pp pp
0 1
0 1
0 1
ITEM: ATOMS id x y z E
0 0.943001 0.5 0.5 -0.444752
1 0.0570028 0.5 0.5 -0.444752
ITEM: TIMESTEP
0.54
ITEM: NUMBER OF ATOMS
2
ITEM: BOX BOUNDS pp pp pp
0 1
0 1
0 1
ITEM: ATOMS id x y z E
0 0.93955 0.5 0.5 -0.444788
1 0.0604534 0.5 0.5 -0.444788
ITEM: TIMESTEP
0.545
ITEM: NUMBER OF ATOMS
2
ITEM: BOX BOUNDS pp pp pp
0 1
0 1
0 1
ITEM: ATOMS id x y z E
0 0.936645 0.5 0.5 -0.444778
1 0.0633582 0.5 0.5 -0.444778
ITEM: TIMESTEP
0.55
ITEM: NUMBER OF ATOMS
2
ITEM: BOX BOUNDS pp pp pp
0 1
0 1
0 1
ITEM: ATOMS id x y z E
0 0.934327 0.5 0.5 -0.444764
1 0.0656768 0.5 0.5 -0.444764
ITEM: TIMESTEP
0.555
ITEM: NUMBER OF ATOMS
2
ITEM: BOX BOUNDS pp pp pp
0 1
0 1
0 1
ITEM: ATOMS id x y z E
0 0.932551 0.5 0.5 -0.444738
1 0.0674523 0.5 0.5 -0.444738
ITEM: TIMESTEP
0.56
ITEM: NUMBER OF ATOMS
2
ITEM: BOX BOUNDS pp pp pp
0 1
0 1
0 1
ITEM: ATOMS id x y z E
0 0.93127 0.5 0.5 -0.444732
1 0.0687337 0.5 0.5 -0.444732
ITEM: TIMESTEP
0.565
ITEM: NUMBER OF ATOMS
2
ITEM: BOX BOUNDS pp pp pp
0 1
0 1
0 1
ITEM: ATOMS id x y z E
0 0.930445 0.5 0.5 -0.444732
1 0.0695587 0.5 0.5 -0.444732
ITEM: TIMESTEP
0.57
ITEM: NUMBER OF ATOMS
2
ITEM: BOX BOUNDS pp pp pp
0 1
0 1
0 1
ITEM: ATOMS id x y z E
0 0.930052 0.5 0.5 -0.444727
1 0.0699519 0.5 0.5 -0.444727
ITEM: TIMESTEP
0.575
ITEM: NUMBER OF ATOMS
2
ITEM: BOX BOUNDS pp pp pp
0 1
0 1
0 1
ITEM: ATOMS id x y z E
0 0.930079 0.5 0.5 -0.44472
1 0.0699246 0.5 0.5 -0.44472
ITEM: TIMESTEP
0.58
ITEM: NUMBER OF ATOMS
2
ITEM: BOX BOUNDS pp pp pp
0 1
0 1
0 1
ITEM: ATOMS id x y z E
0 0.930528 0.5 0.5 -0.444711
1 0.069476 0.5 0.5 -0.444711
ITEM: TIMESTEP
0.585
ITEM: NUMBER OF ATOMS
2
ITEM: BOX BOUNDS pp pp pp
0 1
0 1
0 1
ITEM: ATOMS id x y z E
0 0.93141 0.5 0.5 -0.444691
1 0.0685931 0.5 0.5 -0.444691
ITEM: TIMESTEP
0.59
ITEM: NUMBER OF ATOMS
2
ITEM: BOX BOUNDS pp pp pp
0 1
0 1
0 1
ITEM: ATOMS id x y z E
0 0.932754 0.5 0.5 -0.444681
1 0.0672497 0.5 0.5 -0.444681
ITEM: TIMESTEP
0.595
ITEM: NUMBER OF ATOMS
2
ITEM: BOX BOUNDS pp pp pp
0 1
0 1
0 1
ITEM: ATOMS id x y z E
0 0.934597 0.5 0.5 -0.444667
1 0.0654063 0.5 0.5 -0.444667
ITEM: TIMESTEP
0.6
ITEM: NUMBER OF ATOMS
2
ITEM: BOX BOUNDS pp pp pp
0 1
0 1
0 1
ITEM: ATOMS id x y z E
0 0.936991 0.5 0.5 -0.444659
1 0.0630131 0.5 0.5 -0.444659
ITEM: TIMESTEP
0.605
ITEM: NUMBER OF ATOMS
2
ITEM: BOX BOUNDS pp pp pp
0 1
0 1
0 1
ITEM: ATOMS id x y z E
0 0.939973 0.5 0.5 -0.444652
1 0.0600312 0.5 0.5 -0.444652
ITEM: TIMESTEP
0.61
ITEM: NUMBER OF ATOMS
2
ITEM: BOX BOUNDS pp pp pp
0 1
0 1
0 1
ITEM: ATOMS id x y z E
0 0.943476 0.5 0.5 -0.444693
1 0.056526 0.5 0.5 -0.444693
ITEM: TIMESTEP
0.615
ITEM: NUMBER OF ATOMS
2
ITEM: BOX BOUNDS pp pp pp
0 1
0 1
0 1
ITEM: ATOMS id x y z E
0 0.946982 0.5 0.5 -0.444915
1 0.0530225 0.5 0.5 -0.444915
ITEM: TIMESTEP
0.62
ITEM: NUMBER OF ATOMS
2
ITEM: BOX BOUNDS pp pp pp
0 1
0 1
0 1
ITEM: ATOMS id x y z E
0 0.948794 0.5 0.5 -0.444734
1 0.0512102 0.5 0.5 -0.444734
ITEM: TIMESTEP
0.625
ITEM: NUMBER OF ATOMS
2
ITEM: BOX BOUNDS pp pp pp
0 1
0 1
0 1
ITEM: ATOMS id x y z E
0 0.947292 0.5 0.5 -0.444543
1 0.0527123 0.5 0.5 -0.444543
ITEM: TIMESTEP
0.63
ITEM: NUMBER OF ATOMS
2
ITEM: BOX BOUNDS pp pp pp
0 1
0 1
0 1
ITEM: ATOMS id x y z E
0 0.943862 0.5 0.5 -0.444748
1 0.0561423 0.5 0.5 -0.444748
ITEM: TIMESTEP
0.635
ITEM: NUMBER OF ATOMS
2
ITEM: BOX BOUNDS pp pp pp
0 1
0 1
0 1
ITEM: ATOMS id x y z E
0 0.940318 0.5 0.5 -0.444829
1 0.0596857 0.5 0.5 -0.444829
ITEM: TIMESTEP
0.64
ITEM: NUMBER OF ATOMS
2
ITEM: BOX BOUNDS pp pp pp
0 1
0 1
0 1
ITEM: ATOMS id x y z E
0 0.937275 0.5 0.5 -0.444825
1 0.0627289 0.5 0.5 -0.444825
ITEM: TIMESTEP
0.645
ITEM: NUMBER OF ATOMS
2
ITEM: BOX BOUNDS pp pp pp
0 1
0 1
0 1
ITEM: ATOMS id x y z E
0 0.934821 0.5 0.5 -0.444799
1 0.0651823 0.5 0.5 -0.444799
ITEM: TIMESTEP
0.65
ITEM: NUMBER OF ATOMS
2
ITEM: BOX BOUNDS pp pp pp
0 1
0 1
0 1
ITEM: ATOMS id x y z E
0 0.932923 0.5 0.5 -0.444776
1 0.0670807 0.5 0.5 -0.444776
ITEM: TIMESTEP
0.655
ITEM: NUMBER OF ATOMS
2
ITEM: BOX BOUNDS pp pp pp
0 1
0 1
0 1
ITEM: ATOMS id x y z E
0 0.931529 0.5 0.5 -0.44477
1 0.0684742 0.5 0.5 -0.44477
ITEM: TIMESTEP
0.66
ITEM: NUMBER OF ATOMS
2
ITEM: BOX BOUNDS pp pp pp
0 1
0 1
0 1
ITEM: ATOMS id x y z E
0 0.9306 0.5 0.5 -0.444771
1 0.0694037 0.5 0.5 -0.444771
ITEM: TIMESTEP
0.665
ITEM: NUMBER OF ATOMS
2
ITEM: BOX BOUNDS pp pp pp
0 1
0 1
0 1
ITEM: ATOMS id x y z E
0 0.930107 0.5 0.5 -0.444758
1 0.0698967 0.5 0.5 -0.444758
ITEM: TIMESTEP
0.67
ITEM: NUMBER OF ATOMS
2
ITEM: BOX BOUNDS pp pp pp
0 1
0 1
0 1
ITEM: ATOMS id x y z E
0 0.930036 0.5 0.5 -0.44475
1 0.0699676 0.5 0.5 -0.44475
ITEM: TIMESTEP
0.675
ITEM: NUMBER OF ATOMS
2
ITEM: BOX BOUNDS pp pp pp
0 1
0 1
0 1
ITEM: ATOMS id x y z E
0 0.930385 0.5 0.5 -0.444738
1 0.0696185 0.5 0.5 -0.444738
ITEM: TIMESTEP
0.68
ITEM: NUMBER OF ATOMS
2
ITEM: BOX BOUNDS pp pp pp
0 1
0 1
0 1
ITEM: ATOMS id x y z E
0 0.931165 0.5 0.5 -0.444738
1 0.0688393 0.5 0.5 -0.444738
ITEM: TIMESTEP
0.685
ITEM: NUMBER OF ATOMS
2
ITEM: BOX BOUNDS pp pp pp
0 1
0 1
0 1
ITEM: ATOMS id x y z E
0 0.932397 0.5 0.5 -0.444721
1 0.0676069 0.5 0.5 -0.444721
ITEM: TIMESTEP
0.69
ITEM: NUMBER OF ATOMS
2
ITEM: BOX BOUNDS pp pp pp
0 1
0 1
0 1
ITEM: ATOMS id x y z E
0 0.934119 0.5 0.5 -0.444712
1 0.0658849 0.5 0.5 -0.444712
ITEM: TIMESTEP
0.695
ITEM: NUMBER OF ATOMS
2
ITEM: BOX BOUNDS pp pp pp
0 1
0 1
0 1
ITEM: ATOMS id x y z E
0 0.936379 0.5 0.5 -0.444692
1 0.0636251 0.5 0.5 -0.444692
ITEM: TIMESTEP
0.7
ITEM: NUMBER OF ATOMS
2
ITEM: BOX BOUNDS pp pp pp
0 1
0 1
0 1
ITEM: ATOMS id x y z E
0 0.939222 0.5 0.5 -0.44468
1 0.0607819 0.5 0.5 -0.44468
ITEM: TIMESTEP
0.705
ITEM: NUMBER OF ATOMS
2
ITEM: BOX BOUNDS pp pp pp
0 1
0 1
0 1
ITEM: ATOMS id x y z E
0 0.942625 0.5 0.5 -0.444713
1 0.0573792 0.5 0.5 -0.444713
ITEM: TIMESTEP
0.71
ITEM: NUMBER OF ATOMS
2
ITEM: BOX BOUNDS pp pp pp
0 1
0 1
0 1
ITEM: ATOMS id x y z E
0 0.946228 0.5 0.5 -0.444884
1 0.0537769 0.5 0.5 -0.444884
ITEM: TIMESTEP
0.715
ITEM: NUMBER OF ATOMS
2
ITEM: BOX BOUNDS pp pp pp
0 1
0 1
0 1
ITEM: ATOMS id x y z E
0 0.948648 0.5 0.5 -0.444884
1 0.0513567 0.5 0.5 -0.444884
ITEM: TIMESTEP
0.72
ITEM: NUMBER OF ATOMS
2
ITEM: BOX BOUNDS pp pp pp
0 1
0 1
0 1
ITEM: ATOMS id x y z E
0 0.947907 0.5 0.5 -0.444568
1 0.0520979 0.5 0.5 -0.444568
ITEM: TIMESTEP
0.725
ITEM: NUMBER OF ATOMS
2
ITEM: BOX BOUNDS pp pp pp
0 1
0 1
0 1
ITEM: ATOMS id x y z E
0 0.944719 0.5 0.5 -0.444776
1 0.0552855 0.5 0.5 -0.444776
ITEM: TIMESTEP
0.73
ITEM: NUMBER OF ATOMS
2
ITEM: BOX BOUNDS pp pp pp
0 1
0 1
0 1
ITEM: ATOMS id x y z E
0 0.941113 0.5 0.5 -0.444883
1 0.0588917 0.5 0.5 -0.444883
ITEM: TIMESTEP
0.735
ITEM: NUMBER OF ATOMS
2
ITEM: BOX BOUNDS pp pp pp
0 1
0 1
0 1
ITEM: ATOMS id x y z E
0 0.937935 0.5 0.5 -0.444877
1 0.0620693 0.5 0.5 -0.444877
ITEM: TIMESTEP
0.74
ITEM: NUMBER OF ATOMS
2
ITEM: BOX BOUNDS pp pp pp
0 1
0 1
0 1
ITEM: ATOMS id x y z E
0 0.935345 0.5 0.5 -0.444859
1 0.0646592 0.5 0.5 -0.444859
ITEM: TIMESTEP
0.745
ITEM: NUMBER OF ATOMS
2
ITEM: BOX BOUNDS pp pp pp
0 1
0 1
0 1
ITEM: ATOMS id x y z E
0 0.933321 0.5 0.5 -0.444839
1 0.0666827 0.5 0.5 -0.444839
ITEM: TIMESTEP
0.75
ITEM: NUMBER OF ATOMS
2
ITEM: BOX BOUNDS pp pp pp
0 1
0 1
0 1
ITEM: ATOMS id x y z E
0 0.931814 0.5 0.5 -0.44484
1 0.0681901 0.5 0.5 -0.44484
ITEM: TIMESTEP
0.755
ITEM: NUMBER OF ATOMS
2
ITEM: BOX BOUNDS pp pp pp
0 1
0 1
0 1
ITEM: ATOMS id x y z E
0 0.930779 0.5 0.5 -0.444822
1 0.069225 0.5 0.5 -0.444822
ITEM: TIMESTEP
0.76
ITEM: NUMBER OF ATOMS
2
ITEM: BOX BOUNDS pp pp pp
0 1
0 1
0 1
ITEM: ATOMS id x y z E
0 0.930186 0.5 0.5 -0.444815
1 0.0698181 0.5 0.5 -0.444815
ITEM: TIMESTEP
0.765
ITEM: NUMBER OF ATOMS
2
ITEM: BOX BOUNDS pp pp pp
0 1
0 1
0 1
ITEM: ATOMS id x y z E
0 0.930017 0.5 0.5 -0.44481
1 0.0699869 0.5 0.5 -0.44481
ITEM: TIMESTEP
0.77
ITEM: NUMBER OF ATOMS
2
ITEM: BOX BOUNDS pp pp pp
0 1
0 1
0 1
ITEM: ATOMS id x y z E
0 0.930268 0.5 0.5 -0.444806
1 0.0697363 0.5 0.5 -0.444806
ITEM: TIMESTEP
0.775
ITEM: NUMBER OF ATOMS
2
ITEM: BOX BOUNDS pp pp pp
0 1
0 1
0 1
ITEM: ATOMS id x y z E
0 0.930946 0.5 0.5 -0.444803
1 0.0690589 0.5 0.5 -0.444803
ITEM: TIMESTEP
0.78
ITEM: NUMBER OF ATOMS
2
ITEM: BOX BOUNDS pp pp pp
0 1
0 1
0 1
ITEM: ATOMS id x y z E
0 0.93207 0.5 0.5 -0.444788
1 0.0679348 0.5 0.5 -0.444788
ITEM: TIMESTEP
0.785
ITEM: NUMBER OF ATOMS
2
ITEM: BOX BOUNDS pp pp pp
0 1
0 1
0 1
ITEM: ATOMS id x y z E
0 0.933674 0.5 0.5 -0.444776
1 0.0663308 0.5 0.5 -0.444776
ITEM: TIMESTEP
0.79
ITEM: NUMBER OF ATOMS
2
ITEM: BOX BOUNDS pp pp pp
0 1
0 1
0 1
ITEM: ATOMS id x y z E
0 0.935803 0.5 0.5 -0.444748
1 0.0642008 0.5 0.5 -0.444748
ITEM: TIMESTEP
0.795
ITEM: NUMBER OF ATOMS
2
ITEM: BOX BOUNDS pp pp pp
0 1
0 1
0 1
ITEM: ATOMS id x y z E
0 0.938508 0.5 0.5 -0.444737
1 0.0614959 0.5 0.5 -0.444737
ITEM: TIMESTEP
0.8
ITEM: NUMBER OF ATOMS
2
ITEM: BOX BOUNDS pp pp pp
0 1
0 1
0 1
ITEM: ATOMS id x y z E
0 0.941793 0.5 0.5 -0.444755
1 0.0582114 0.5 0.5 -0.444755
ITEM: TIMESTEP
0.805
ITEM: NUMBER OF ATOMS
2
ITEM: BOX BOUNDS pp pp pp
0 1
0 1
0 1
ITEM: ATOMS id x y z E
0 0.945421 0.5 0.5 -0.444895
1 0.054584 0.5 0.5 -0.444895
ITEM: TIMESTEP
0.81
ITEM: NUMBER OF ATOMS
2
ITEM: BOX BOUNDS pp pp pp
0 1
0 1
0 1
ITEM: ATOMS id x y z E
0 0.948314 0.5 0.5 -0.445028
1 0.0516911 0.5 0.5 -0.445028
ITEM: TIMESTEP
0.815
ITEM: NUMBER OF ATOMS
2
ITEM: BOX BOUNDS pp pp pp
0 1
0 1
0 1
ITEM: ATOMS id x y z E
0 0.94838 0.5 0.5 -0.444671
1 0.0516253 0.5 0.5 -0.444671
ITEM: TIMESTEP
0.82
ITEM: NUMBER OF ATOMS
2
ITEM: BOX BOUNDS pp pp pp
0 1
0 1
0 1
ITEM: ATOMS id x y z E
0 0.945555 0.5 0.5 -0.444785
1 0.0544501 0.5 0.5 -0.444785
ITEM: TIMESTEP
0.825
ITEM: NUMBER OF ATOMS
2
ITEM: BOX BOUNDS pp pp pp
0 1
0 1
0 1
ITEM: ATOMS id x y z E
0 0.941927 0.5 0.5 -0.444928
1 0.0580774 0.5 0.5 -0.444928
ITEM: TIMESTEP
0.83
ITEM: NUMBER OF ATOMS
2
ITEM: BOX BOUNDS pp pp pp
0 1
0 1
0 1
ITEM: ATOMS id x y z E
0 0.938623 0.5 0.5 -0.444953
1 0.0613817 0.5 0.5 -0.444953
ITEM: TIMESTEP
0.835
ITEM: NUMBER OF ATOMS
2
ITEM: BOX BOUNDS pp pp pp
0 1
0 1
0 1
ITEM: ATOMS id x y z E
0 0.935896 0.5 0.5 -0.444941
1 0.0641089 0.5 0.5 -0.444941
ITEM: TIMESTEP
0.84
ITEM: NUMBER OF ATOMS
2
ITEM: BOX BOUNDS pp pp pp
0 1
0 1
0 1
ITEM: ATOMS id x y z E
0 0.933745 0.5 0.5 -0.444908
1 0.0662596 0.5 0.5 -0.444908
ITEM: TIMESTEP
0.845
ITEM: NUMBER OF ATOMS
2
ITEM: BOX BOUNDS pp pp pp
0 1
0 1
0 1
ITEM: ATOMS id x y z E
0 0.932123 0.5 0.5 -0.44491
1 0.0678824 0.5 0.5 -0.44491
ITEM: TIMESTEP
0.85
ITEM: NUMBER OF ATOMS
2
ITEM: BOX BOUNDS pp pp pp
0 1
0 1
0 1
ITEM: ATOMS id x y z E
0 0.930981 0.5 0.5 -0.444892
1 0.0690237 0.5 0.5 -0.444892
ITEM: TIMESTEP
0.855
ITEM: NUMBER OF ATOMS
2
ITEM: BOX BOUNDS pp pp pp
0 1
0 1
0 1
ITEM: ATOMS id x y z E
0 0.930288 0.5 0.5 -0.444891
1 0.0697173 0.5 0.5 -0.444891
ITEM: TIMESTEP
0.86
ITEM: NUMBER OF ATOMS
2
ITEM: BOX BOUNDS pp pp pp
0 1
0 1
0 1
ITEM: ATOMS id x y z E
0 0.930022 0.5 0.5 -0.444884
1 0.0699835 0.5 0.5 -0.444884
ITEM: TIMESTEP
0.865
ITEM: NUMBER OF ATOMS
2
ITEM: BOX BOUNDS pp pp pp
0 1
0 1
0 1
ITEM: ATOMS id x y z E
0 0.930175 0.5 0.5 -0.444878
1 0.0698302 0.5 0.5 -0.444878
ITEM: TIMESTEP
0.87
ITEM: NUMBER OF ATOMS
2
ITEM: BOX BOUNDS pp pp pp
0 1
0 1
0 1
ITEM: ATOMS id x y z E
0 0.930752 0.5 0.5 -0.444863
1 0.069253 0.5 0.5 -0.444863
ITEM: TIMESTEP
0.875
ITEM: NUMBER OF ATOMS
2
ITEM: BOX BOUNDS pp pp pp
0 1
0 1
0 1
ITEM: ATOMS id x y z E
0 0.931771 0.5 0.5 -0.444862
1 0.0682347 0.5 0.5 -0.444862
ITEM: TIMESTEP
0.88
ITEM: NUMBER OF ATOMS
2
ITEM: BOX BOUNDS pp pp pp
0 1
0 1
0 1
ITEM: ATOMS id x y z E
0 0.93326 0.5 0.5 -0.444848
1 0.0667454 0.5 0.5 -0.444848
ITEM: TIMESTEP
0.885
ITEM: NUMBER OF ATOMS
2
ITEM: BOX BOUNDS pp pp pp
0 1
0 1
0 1
ITEM: ATOMS id x y z E
0 0.935264 0.5 0.5 -0.444831
1 0.0647416 0.5 0.5 -0.444831
ITEM: TIMESTEP
0.89
ITEM: NUMBER OF ATOMS
2
ITEM: BOX BOUNDS pp pp pp
0 1
0 1
0 1
ITEM: ATOMS id x y z E
0 0.937832 0.5 0.5 -0.444817
1 0.062173 0.5 0.5 -0.444817
ITEM: TIMESTEP
0.895
ITEM: NUMBER OF ATOMS
2
ITEM: BOX BOUNDS pp pp pp
0 1
0 1
0 1
ITEM: ATOMS id x y z E
0 0.940989 0.5 0.5 -0.444805
1 0.0590161 0.5 0.5 -0.444805
ITEM: TIMESTEP
0.9
ITEM: NUMBER OF ATOMS
2
ITEM: BOX BOUNDS pp pp pp
0 1
0 1
0 1
ITEM: ATOMS id x y z E
0 0.944588 0.5 0.5 -0.444916
1 0.0554173 0.5 0.5 -0.444916
ITEM: TIMESTEP
0.905
ITEM: NUMBER OF ATOMS
2
ITEM: BOX BOUNDS pp pp pp
0 1
0 1
0 1
ITEM: ATOMS id x y z E
0 0.94782 0.5 0.5 -0.44513
1 0.0521851 0.5 0.5 -0.44513
ITEM: TIMESTEP
0.91
ITEM: NUMBER OF ATOMS
2
ITEM: BOX BOUNDS pp pp pp
0 1
0 1
0 1
ITEM: ATOMS id x y z E
0 0.948684 0.5 0.5 -0.444776
1 0.0513224 0.5 0.5 -0.444776
ITEM: TIMESTEP
0.915