ITEM: TIMESTEP
0
ITEM: NUMBER OF ATOMS
2
ITEM: BOX BOUNDS pp pp pp
0 1
0 1
0 1
ITEM: ATOMS id x y z E
0 0.649997 0.5 0.5 -0.304019
1 0.350003 0.5 0.5 -0.304019
ITEM: TIMESTEP
0.001
ITEM: NUMBER OF ATOMS
2
ITEM: BOX BOUNDS pp pp pp
0 1
0 1
0 1
ITEM: ATOMS id x y z E
0 0.649988 0.5 0.5 -0.304019
1 0.350012 0.5 0.5 -0.304019
ITEM: TIMESTEP
0.002
ITEM: NUMBER OF ATOMS
2
ITEM: BOX BOUNDS pp pp pp
0 1
0 1
0 1
ITEM: ATOMS id x y z E
0 0.649974 0.5 0.5 -0.304018
1 0.350026 0.5 0.5 -0.304018
ITEM: TIMESTEP
0.003
ITEM: NUMBER OF ATOMS
2
ITEM: BOX BOUNDS pp pp pp
0 1
0 1
0 1
ITEM: ATOMS id x y z E
0 0.649954 0.5 0.5 -0.304018
1 0.350046 0.5 0.5 -0.304018
ITEM: TIMESTEP
0.004
ITEM: NUMBER OF ATOMS
2
ITEM: BOX BOUNDS pp pp pp
0 1
0 1
0 1
ITEM: ATOMS id x y z E
0 0.649927 0.5 0.5 -0.304017
1 0.350072 0.5 0.5 -0.304017
ITEM: TIMESTEP
0.005
ITEM: NUMBER OF ATOMS
2
ITEM: BOX BOUNDS pp pp pp
0 1
0 1
0 1
ITEM: ATOMS id x y z E
0 0.649896 0.5 0.5 -0.304017
1 0.350104 0.5 0.5 -0.304017
ITEM: TIMESTEP
0.006
ITEM: NUMBER OF ATOMS
2
ITEM: BOX BOUNDS pp pp pp
0 1
0 1
0 1
ITEM: ATOMS id x y z E
0 0.649858 0.5 0.5 -0.304016
1 0.350142 0.5 0.5 -0.304016
ITEM: TIMESTEP
0.007
ITEM: NUMBER OF ATOMS
2
ITEM: BOX BOUNDS pp pp pp
0 1
0 1
0 1
ITEM: ATOMS id x y z E
0 0.649814 0.5 0.5 -0.304015
1 0.350186 0.5 0.5 -0.304015
ITEM: TIMESTEP
0.008
ITEM: NUMBER OF ATOMS
2
ITEM: BOX BOUNDS pp pp pp
0 1
0 1
0 1
ITEM: ATOMS id x y z E
0 0.649765 0.5 0.5 -0.304014
1 0.350235 0.5 0.5 -0.304014
ITEM: TIMESTEP
0.009
ITEM: NUMBER OF ATOMS
2
ITEM: BOX BOUNDS pp pp pp
0 1
0 1
0 1
ITEM: ATOMS id x y z E
0 0.64971 0.5 0.5 -0.304014
1 0.35029 0.5 0.5 -0.304014
ITEM: TIMESTEP
0.01
ITEM: NUMBER OF ATOMS
2
ITEM: BOX BOUNDS pp pp pp
0 1
0 1
0 1
ITEM: ATOMS id x y z E
0 0.649649 0.5 0.5 -0.304013
1 0.350351 0.5 0.5 -0.304013
ITEM: TIMESTEP
0.011
ITEM: NUMBER OF ATOMS
2
ITEM: BOX BOUNDS pp pp pp
0 1
0 1
0 1
ITEM: ATOMS id x y z E
0 0.649582 0.5 0.5 -0.304013
1 0.350418 0.5 0.5 -0.304013
ITEM: TIMESTEP
0.012
ITEM: NUMBER OF ATOMS
2
ITEM: BOX BOUNDS pp pp pp
0 1
0 1
0 1
ITEM: ATOMS id x y z E
0 0.649509 0.5 0.5 -0.304013
1 0.350491 0.5 0.5 -0.304013
ITEM: TIMESTEP
0.013
ITEM: NUMBER OF ATOMS
2
ITEM: BOX BOUNDS pp pp pp
0 1
0 1
0 1
ITEM: ATOMS id x y z E
0 0.64943 0.5 0.5 -0.304012
1 0.35057 0.5 0.5 -0.304012
ITEM: TIMESTEP
0.014
ITEM: NUMBER OF ATOMS
2
ITEM: BOX BOUNDS pp pp pp
0 1
0 1
0 1
ITEM: ATOMS id x y z E
0 0.649346 0.5 0.5 -0.304012
1 0.350654 0.5 0.5 -0.304012
ITEM: TIMESTEP
0.015
ITEM: NUMBER OF ATOMS
2
ITEM: BOX BOUNDS pp pp pp
0 1
0 1
0 1
ITEM: ATOMS id x y z E
0 0.649255 0.5 0.5 -0.304012
1 0.350745 0.5 0.5 -0.304012
ITEM: TIMESTEP
0.016
ITEM: NUMBER OF ATOMS
2
ITEM: BOX BOUNDS pp pp pp
0 1
0 1
0 1
ITEM: ATOMS id x y z E
0 0.649159 0.5 0.5 -0.304012
1 0.350842 0.5 0.5 -0.304012
ITEM: TIMESTEP
0.017
ITEM: NUMBER OF ATOMS
2
ITEM: BOX BOUNDS pp pp pp
0 1
0 1
0 1
ITEM: ATOMS id x y z E
0 0.649056 0.5 0.5 -0.304011
1 0.350944 0.5 0.5 -0.304011
ITEM: TIMESTEP
0.018
ITEM: NUMBER OF ATOMS
2
ITEM: BOX BOUNDS pp pp pp
0 1
0 1
0 1
ITEM: ATOMS id x y z E
0 0.648948 0.5 0.5 -0.304011
1 0.351053 0.5 0.5 -0.304011
ITEM: TIMESTEP
0.019
ITEM: NUMBER OF ATOMS
2
ITEM: BOX BOUNDS pp pp pp
0 1
0 1
0 1
ITEM: ATOMS id x y z E
0 0.648833 0.5 0.5 -0.304011
1 0.351167 0.5 0.5 -0.304011
ITEM: TIMESTEP
0.02
ITEM: NUMBER OF ATOMS
2
ITEM: BOX BOUNDS pp pp pp
0 1
0 1
0 1
ITEM: ATOMS id x y z E
0 0.648712 0.5 0.5 -0.30401
1 0.351288 0.5 0.5 -0.30401
ITEM: TIMESTEP
0.021
ITEM: NUMBER OF ATOMS
2
ITEM: BOX BOUNDS pp pp pp
0 1
0 1
0 1
ITEM: ATOMS id x y z E
0 0.648586 0.5 0.5 -0.30401
1 0.351414 0.5 0.5 -0.30401
ITEM: TIMESTEP
0.022
ITEM: NUMBER OF ATOMS
2
ITEM: BOX BOUNDS pp pp pp
0 1
0 1
0 1
ITEM: ATOMS id x y z E
0 0.648453 0.5 0.5 -0.30401
1 0.351547 0.5 0.5 -0.30401
ITEM: TIMESTEP
0.023
ITEM: NUMBER OF ATOMS
2
ITEM: BOX BOUNDS pp pp pp
0 1
0 1
0 1
ITEM: ATOMS id x y z E
0 0.648314 0.5 0.5 -0.30401
1 0.351686 0.5 0.5 -0.30401
ITEM: TIMESTEP
0.024
ITEM: NUMBER OF ATOMS
2
ITEM: BOX BOUNDS pp pp pp
0 1
0 1
0 1
ITEM: ATOMS id x y z E
0 0.648169 0.5 0.5 -0.30401
1 0.351831 0.5 0.5 -0.30401
ITEM: TIMESTEP
0.025
ITEM: NUMBER OF ATOMS
2
ITEM: BOX BOUNDS pp pp pp
0 1
0 1
0 1
ITEM: ATOMS id x y z E
0 0.648017 0.5 0.5 -0.30401
1 0.351983 0.5 0.5 -0.30401
ITEM: TIMESTEP
0.026
ITEM: NUMBER OF ATOMS
2
ITEM: BOX BOUNDS pp pp pp
0 1
0 1
0 1
ITEM: ATOMS id x y z E
0 0.64786 0.5 0.5 -0.30401
1 0.35214 0.5 0.5 -0.30401
ITEM: TIMESTEP
0.027
ITEM: NUMBER OF ATOMS
2
ITEM: BOX BOUNDS pp pp pp
0 1
0 1
0 1
ITEM: ATOMS id x y z E
0 0.647696 0.5 0.5 -0.304009
1 0.352304 0.5 0.5 -0.304009
ITEM: TIMESTEP
0.028
ITEM: NUMBER OF ATOMS
2
ITEM: BOX BOUNDS pp pp pp
0 1
0 1
0 1
ITEM: ATOMS id x y z E
0 0.647526 0.5 0.5 -0.304009
1 0.352474 0.5 0.5 -0.304009
ITEM: TIMESTEP
0.029
ITEM: NUMBER OF ATOMS
2
ITEM: BOX BOUNDS pp pp pp
0 1
0 1
0 1
ITEM: ATOMS id x y z E
0 0.647349 0.5 0.5 -0.304008
1 0.352651 0.5 0.5 -0.304008
ITEM: TIMESTEP
0.03
ITEM: NUMBER OF ATOMS
2
ITEM: BOX BOUNDS pp pp pp
0 1
0 1
0 1
ITEM: ATOMS id x y z E
0 0.647167 0.5 0.5 -0.304006
1 0.352833 0.5 0.5 -0.304006
ITEM: TIMESTEP
0.031
ITEM: NUMBER OF ATOMS
2
ITEM: BOX BOUNDS pp pp pp
0 1
0 1
0 1
ITEM: ATOMS id x y z E
0 0.646977 0.5 0.5 -0.304005
1 0.353023 0.5 0.5 -0.304005
ITEM: TIMESTEP
0.032
ITEM: NUMBER OF ATOMS
2
ITEM: BOX BOUNDS pp pp pp
0 1
0 1
0 1
ITEM: ATOMS id x y z E
0 0.646782 0.5 0.5 -0.304004
1 0.353219 0.5 0.5 -0.304004
ITEM: TIMESTEP
0.033
ITEM: NUMBER OF ATOMS
2
ITEM: BOX BOUNDS pp pp pp
0 1
0 1
0 1
ITEM: ATOMS id x y z E
0 0.646579 0.5 0.5 -0.304002
1 0.353421 0.5 0.5 -0.304002
ITEM: TIMESTEP
0.034
ITEM: NUMBER OF ATOMS
2
ITEM: BOX BOUNDS pp pp pp
0 1
0 1
0 1
ITEM: ATOMS id x y z E
0 0.64637 0.5 0.5 -0.304003
1 0.35363 0.5 0.5 -0.304003
ITEM: TIMESTEP
0.035
ITEM: NUMBER OF ATOMS
2
ITEM: BOX BOUNDS pp pp pp
0 1
0 1
0 1
ITEM: ATOMS id x y z E
0 0.646154 0.5 0.5 -0.304003
1 0.353846 0.5 0.5 -0.304003
ITEM: TIMESTEP
0.036
ITEM: NUMBER OF ATOMS
2
ITEM: BOX BOUNDS pp pp pp
0 1
0 1
0 1
ITEM: ATOMS id x y z E
0 0.645932 0.5 0.5 -0.304004
1 0.354068 0.5 0.5 -0.304004
ITEM: TIMESTEP
0.037
ITEM: NUMBER OF ATOMS
2
ITEM: BOX BOUNDS pp pp pp
0 1
0 1
0 1
ITEM: ATOMS id x y z E
0 0.645703 0.5 0.5 -0.304004
1 0.354297 0.5 0.5 -0.304004
ITEM: TIMESTEP
0.038
ITEM: NUMBER OF ATOMS
2
ITEM: BOX BOUNDS pp pp pp
0 1
0 1
0 1
ITEM: ATOMS id x y z E
0 0.645467 0.5 0.5 -0.304003
1 0.354533 0.5 0.5 -0.304003
ITEM: TIMESTEP
0.039
ITEM: NUMBER OF ATOMS
2
ITEM: BOX BOUNDS pp pp pp
0 1
0 1
0 1
ITEM: ATOMS id x y z E
0 0.645224 0.5 0.5 -0.304001
1 0.354776 0.5 0.5 -0.304001
ITEM: TIMESTEP
0.04
ITEM: NUMBER OF ATOMS
2
ITEM: BOX BOUNDS pp pp pp
0 1
0 1
0 1
ITEM: ATOMS id x y z E
0 0.644975 0.5 0.5 -0.303998
1 0.355025 0.5 0.5 -0.303998
ITEM: TIMESTEP
0.041
ITEM: NUMBER OF ATOMS
2
ITEM: BOX BOUNDS pp pp pp
0 1
0 1
0 1
ITEM: ATOMS id x y z E
0 0.644718 0.5 0.5 -0.303999
1 0.355282 0.5 0.5 -0.303999
ITEM: TIMESTEP
0.042
ITEM: NUMBER OF ATOMS
2
ITEM: BOX BOUNDS pp pp pp
0 1
0 1
0 1
ITEM: ATOMS id x y z E
0 0.644454 0.5 0.5 -0.304
1 0.355546 0.5 0.5 -0.304
ITEM: TIMESTEP
0.043
ITEM: NUMBER OF ATOMS
2
ITEM: BOX BOUNDS pp pp pp
0 1
0 1
0 1
ITEM: ATOMS id x y z E
0 0.644183 0.5 0.5 -0.304
1 0.355817 0.5 0.5 -0.304
ITEM: TIMESTEP
0.044
ITEM: NUMBER OF ATOMS
2
ITEM: BOX BOUNDS pp pp pp
0 1
0 1
0 1
ITEM: ATOMS id x y z E
0 0.643905 0.5 0.5 -0.303997
1 0.356095 0.5 0.5 -0.303997
ITEM: TIMESTEP
0.045
ITEM: NUMBER OF ATOMS
2
ITEM: BOX BOUNDS pp pp pp
0 1
0 1
0 1
ITEM: ATOMS id x y z E
0 0.64362 0.5 0.5 -0.303995
1 0.35638 0.5 0.5 -0.303995
ITEM: TIMESTEP
0.046
ITEM: NUMBER OF ATOMS
2
ITEM: BOX BOUNDS pp pp pp
0 1
0 1
0 1
ITEM: ATOMS id x y z E
0 0.643327 0.5 0.5 -0.303995
1 0.356673 0.5 0.5 -0.303995
ITEM: TIMESTEP
0.047
ITEM: NUMBER OF ATOMS
2
ITEM: BOX BOUNDS pp pp pp
0 1
0 1
0 1
ITEM: ATOMS id x y z E
0 0.643027 0.5 0.5 -0.303997
1 0.356973 0.5 0.5 -0.303997
ITEM: TIMESTEP
0.048
ITEM: NUMBER OF ATOMS
2
ITEM: BOX BOUNDS pp pp pp
0 1
0 1
0 1
ITEM: ATOMS id x y z E
0 0.64272 0.5 0.5 -0.303994
1 0.35728 0.5 0.5 -0.303994
ITEM: TIMESTEP
0.049
ITEM: NUMBER OF ATOMS
2
ITEM: BOX BOUNDS pp pp pp
0 1
0 1
0 1
ITEM: ATOMS id x y z E
0 0.642405 0.5 0.5 -0.303991
1 0.357596 0.5 0.5 -0.303991
ITEM: TIMESTEP
0.05
ITEM: NUMBER OF ATOMS
2
ITEM: BOX BOUNDS pp pp pp
0 1
0 1
0 1
ITEM: ATOMS id x y z E
0 0.642081 0.5 0.5 -0.303993
1 0.357919 0.5 0.5 -0.303993
ITEM: TIMESTEP
0.051
ITEM: NUMBER OF ATOMS
2
ITEM: BOX BOUNDS pp pp pp
0 1
0 1
0 1
ITEM: ATOMS id x y z E
0 0.641751 0.5 0.5 -0.303992
1 0.358249 0.5 0.5 -0.303992
ITEM: TIMESTEP
0.052
ITEM: NUMBER OF ATOMS
2
ITEM: BOX BOUNDS pp pp pp
0 1
0 1
0 1
ITEM: ATOMS id x y z E
0 0.641413 0.5 0.5 -0.303988
1 0.358588 0.5 0.5 -0.303988
ITEM: TIMESTEP
0.053
ITEM: NUMBER OF ATOMS
2
ITEM: BOX BOUNDS pp pp pp
0 1
0 1
0 1
ITEM: ATOMS id x y z E
0 0.641066 0.5 0.5 -0.303989
1 0.358934 0.5 0.5 -0.303989
ITEM: TIMESTEP
0.054
ITEM: NUMBER OF ATOMS
2
ITEM: BOX BOUNDS pp pp pp
0 1
0 1
0 1
ITEM: ATOMS id x y z E
0 0.640711 0.5 0.5 -0.303989
1 0.359289 0.5 0.5 -0.303989
ITEM: TIMESTEP
0.055
ITEM: NUMBER OF ATOMS
2
ITEM: BOX BOUNDS pp pp pp
0 1
0 1
0 1
ITEM: ATOMS id x y z E
0 0.640349 0.5 0.5 -0.303985
1 0.359652 0.5 0.5 -0.303985
ITEM: TIMESTEP
0.056
ITEM: NUMBER OF ATOMS
2
ITEM: BOX BOUNDS pp pp pp
0 1
0 1
0 1
ITEM: ATOMS id x y z E
0 0.639977 0.5 0.5 -0.303987
1 0.360023 0.5 0.5 -0.303987
ITEM: TIMESTEP
0.057
ITEM: NUMBER OF ATOMS
2
ITEM: BOX BOUNDS pp pp pp
0 1
0 1
0 1
ITEM: ATOMS id x y z E
0 0.639598 0.5 0.5 -0.303983
1 0.360402 0.5 0.5 -0.303983
ITEM: TIMESTEP
0.058
ITEM: NUMBER OF ATOMS
2
ITEM: BOX BOUNDS pp pp pp
0 1
0 1
0 1
ITEM: ATOMS id x y z E
0 0.63921 0.5 0.5 -0.303983
1 0.36079 0.5 0.5 -0.303983
ITEM: TIMESTEP
0.059
ITEM: NUMBER OF ATOMS
2
ITEM: BOX BOUNDS pp pp pp
0 1
0 1
0 1
ITEM: ATOMS id x y z E
0 0.638814 0.5 0.5 -0.303982
1 0.361186 0.5 0.5 -0.303982
ITEM: TIMESTEP
0.06
ITEM: NUMBER OF ATOMS
2
ITEM: BOX BOUNDS pp pp pp
0 1
0 1
0 1
ITEM: ATOMS id x y z E
0 0.638409 0.5 0.5 -0.30398
1 0.361591 0.5 0.5 -0.30398
ITEM: TIMESTEP
0.061
ITEM: NUMBER OF ATOMS
2
ITEM: BOX BOUNDS pp pp pp
0 1
0 1
0 1
ITEM: ATOMS id x y z E
0 0.637995 0.5 0.5 -0.30398
1 0.362005 0.5 0.5 -0.30398
ITEM: TIMESTEP
0.062
ITEM: NUMBER OF ATOMS
2
ITEM: BOX BOUNDS pp pp pp
0 1
0 1
0 1
ITEM: ATOMS id x y z E
0 0.637572 0.5 0.5 -0.303978
1 0.362428 0.5 0.5 -0.303978
ITEM: TIMESTEP
0.063
ITEM: NUMBER OF ATOMS
2
ITEM: BOX BOUNDS pp pp pp
0 1
0 1
0 1
ITEM: ATOMS id x y z E
0 0.63714 0.5 0.5 -0.303977
1 0.36286 0.5 0.5 -0.303977
ITEM: TIMESTEP
0.064
ITEM: NUMBER OF ATOMS
2
ITEM: BOX BOUNDS pp pp pp
0 1
0 1
0 1
ITEM: ATOMS id x y z E
0 0.636699 0.5 0.5 -0.303976
1 0.363301 0.5 0.5 -0.303976
ITEM: TIMESTEP
0.065
ITEM: NUMBER OF ATOMS
2
ITEM: BOX BOUNDS pp pp pp
0 1
0 1
0 1
ITEM: ATOMS id x y z E
0 0.636248 0.5 0.5 -0.303974
1 0.363752 0.5 0.5 -0.303974
ITEM: TIMESTEP
0.066
ITEM: NUMBER OF ATOMS
2
ITEM: BOX BOUNDS pp pp pp
0 1
0 1
0 1
ITEM: ATOMS id x y z E
0 0.635788 0.5 0.5 -0.303975
1 0.364212 0.5 0.5 -0.303975
ITEM: TIMESTEP
0.067
ITEM: NUMBER OF ATOMS
2
ITEM: BOX BOUNDS pp pp pp
0 1
0 1
0 1
ITEM: ATOMS id x y z E
0 0.635319 0.5 0.5 -0.303971
1 0.364681 0.5 0.5 -0.303971
ITEM: TIMESTEP
0.068
ITEM: NUMBER OF ATOMS
2
ITEM: BOX BOUNDS pp pp pp
0 1
0 1
0 1
ITEM: ATOMS id x y z E
0 0.634839 0.5 0.5 -0.303971
1 0.365161 0.5 0.5 -0.303971
ITEM: TIMESTEP
0.069
ITEM: NUMBER OF ATOMS
2
ITEM: BOX BOUNDS pp pp pp
0 1
0 1
0 1
ITEM: ATOMS id x y z E
0 0.63435 0.5 0.5 -0.30397
1 0.36565 0.5 0.5 -0.30397
ITEM: TIMESTEP
0.07
ITEM: NUMBER OF ATOMS
2
ITEM: BOX BOUNDS pp pp pp
0 1
0 1
0 1
ITEM: ATOMS id x y z E
0 0.633851 0.5 0.5 -0.303966
1 0.366149 0.5 0.5 -0.303966
ITEM: TIMESTEP
0.071
ITEM: NUMBER OF ATOMS
2
ITEM: BOX BOUNDS pp pp pp
0 1
0 1
0 1
ITEM: ATOMS id x y z E
0 0.633342 0.5 0.5 -0.303965
1 0.366658 0.5 0.5 -0.303965
ITEM: TIMESTEP
0.072
ITEM: NUMBER OF ATOMS
2
ITEM: BOX BOUNDS pp pp pp
0 1
0 1
0 1
ITEM: ATOMS id x y z E
0 0.632822 0.5 0.5 -0.303965
1 0.367178 0.5 0.5 -0.303965
ITEM: TIMESTEP
0.073
ITEM: NUMBER OF ATOMS
2
ITEM: BOX BOUNDS pp pp pp
0 1
0 1
0 1
ITEM: ATOMS id x y z E
0 0.632292 0.5 0.5 -0.303962
1 0.367708 0.5 0.5 -0.303962
ITEM: TIMESTEP
0.074
ITEM: NUMBER OF ATOMS
2
ITEM: BOX BOUNDS pp pp pp
0 1
0 1
0 1
ITEM: ATOMS id x y z E
0 0.631751 0.5 0.5 -0.303958
1 0.368249 0.5 0.5 -0.303958
ITEM: TIMESTEP
0.075
ITEM: NUMBER OF ATOMS
2
ITEM: BOX BOUNDS pp pp pp
0 1
0 1
0 1
ITEM: ATOMS id x y z E
0 0.6312 0.5 0.5 -0.303956
1 0.3688 0.5 0.5 -0.303956
ITEM: TIMESTEP
0.076
ITEM: NUMBER OF ATOMS
2
ITEM: BOX BOUNDS pp pp pp
0 1
0 1
0 1
ITEM: ATOMS id x y z E
0 0.630637 0.5 0.5 -0.303954
1 0.369363 0.5 0.5 -0.303954
ITEM: TIMESTEP
0.077
ITEM: NUMBER OF ATOMS
2
ITEM: BOX BOUNDS pp pp pp
0 1
0 1
0 1
ITEM: ATOMS id x y z E
0 0.630064 0.5 0.5 -0.303954
1 0.369936 0.5 0.5 -0.303954
ITEM: TIMESTEP
0.078
ITEM: NUMBER OF ATOMS
2
ITEM: BOX BOUNDS pp pp pp
0 1
0 1
0 1
ITEM: ATOMS id x y z E
0 0.629479 0.5 0.5 -0.303953
1 0.370521 0.5 0.5 -0.303953
ITEM: TIMESTEP
0.079
ITEM: NUMBER OF ATOMS
2
ITEM: BOX BOUNDS pp pp pp
0 1
0 1
0 1
ITEM: ATOMS id x y z E
0 0.628883 0.5 0.5 -0.30395
1 0.371117 0.5 0.5 -0.30395
ITEM: TIMESTEP
0.08
ITEM: NUMBER OF ATOMS
2
ITEM: BOX BOUNDS pp pp pp
0 1
0 1
0 1
ITEM: ATOMS id x y z E
0 0.628276 0.5 0.5 -0.303947
1 0.371724 0.5 0.5 -0.303947
ITEM: TIMESTEP
0.081
ITEM: NUMBER OF ATOMS
2
ITEM: BOX BOUNDS pp pp pp
0 1
0 1
0 1
ITEM: ATOMS id x y z E
0 0.627657 0.5 0.5 -0.303945
1 0.372343 0.5 0.5 -0.303945
ITEM: TIMESTEP
0.082
ITEM: NUMBER OF ATOMS
2
ITEM: BOX BOUNDS pp pp pp
0 1
0 1
0 1
ITEM: ATOMS id x y z E
0 0.627026 0.5 0.5 -0.303942
1 0.372974 0.5 0.5 -0.303942
ITEM: TIMESTEP
0.083
ITEM: NUMBER OF ATOMS
2
ITEM: BOX BOUNDS pp pp pp
0 1
0 1
0 1
ITEM: ATOMS id x y z E
0 0.626384 0.5 0.5 -0.30394
1 0.373616 0.5 0.5 -0.30394
ITEM: TIMESTEP
0.084
ITEM: NUMBER OF ATOMS
2
ITEM: BOX BOUNDS pp pp pp
0 1
0 1
0 1
ITEM: ATOMS id x y z E
0 0.62573 0.5 0.5 -0.303938
1 0.37427 0.5 0.5 -0.303938
ITEM: TIMESTEP
0.085
ITEM: NUMBER OF ATOMS
2
ITEM: BOX BOUNDS pp pp pp
0 1
0 1
0 1
ITEM: ATOMS id x y z E
0 0.625063 0.5 0.5 -0.303937
1 0.374937 0.5 0.5 -0.303937
ITEM: TIMESTEP
0.086
ITEM: NUMBER OF ATOMS
2
ITEM: BOX BOUNDS pp pp pp
0 1
0 1
0 1
ITEM: ATOMS id x y z E
0 0.624385 0.5 0.5 -0.303936
1 0.375615 0.5 0.5 -0.303936
ITEM: TIMESTEP
0.087
ITEM: NUMBER OF ATOMS
2
ITEM: BOX BOUNDS pp pp pp
0 1
0 1
0 1
ITEM: ATOMS id x y z E
0 0.623695 0.5 0.5 -0.303935
1 0.376305 0.5 0.5 -0.303935
ITEM: TIMESTEP
0.088
ITEM: NUMBER OF ATOMS
2
ITEM: BOX BOUNDS pp pp pp
0 1
0 1
0 1
ITEM: ATOMS id x y z E
0 0.622993 0.5 0.5 -0.303934
1 0.377007 0.5 0.5 -0.303934
ITEM: TIMESTEP
0.089
ITEM: NUMBER OF ATOMS
2
ITEM: BOX BOUNDS pp pp pp
0 1
0 1
0 1
ITEM: ATOMS id x y z E
0 0.622279 0.5 0.5 -0.303933
1 0.377721 0.5 0.5 -0.303933
ITEM: TIMESTEP
0.09
ITEM: NUMBER OF ATOMS
2
ITEM: BOX BOUNDS pp pp pp
0 1
0 1
0 1
ITEM: ATOMS id x y z E
0 0.621553 0.5 0.5 -0.303932
1 0.378447 0.5 0.5 -0.303932
ITEM: TIMESTEP
0.091
ITEM: NUMBER OF ATOMS
2
ITEM: BOX BOUNDS pp pp pp
0 1
0 1
0 1
ITEM: ATOMS id x y z E
0 0.620816 0.5 0.5 -0.303933
1 0.379184 0.5 0.5 -0.303933
ITEM: TIMESTEP
0.092
ITEM: NUMBER OF ATOMS
2
ITEM: BOX BOUNDS pp pp pp
0 1
0 1
0 1
ITEM: ATOMS id x y z E
0 0.620067 0.5 0.5 -0.303932
1 0.379933 0.5 0.5 -0.303932
ITEM: TIMESTEP
0.093
ITEM: NUMBER OF ATOMS
2
ITEM: BOX BOUNDS pp pp pp
0 1
0 1
0 1
ITEM: ATOMS id x y z E
0 0.619307 0.5 0.5 -0.303935
1 0.380693 0.5 0.5 -0.303935
ITEM: TIMESTEP
0.094
ITEM: NUMBER OF ATOMS
2
ITEM: BOX BOUNDS pp pp pp
0 1
0 1
0 1
ITEM: ATOMS id x y z E
0 0.618536 0.5 0.5 -0.30394
1 0.381464 0.5 0.5 -0.30394
ITEM: TIMESTEP
0.095
ITEM: NUMBER OF ATOMS
2
ITEM: BOX BOUNDS pp pp pp
0 1
0 1
0 1
ITEM: ATOMS id x y z E
0 0.617756 0.5 0.5 -0.303942
1 0.382244 0.5 0.5 -0.303942
ITEM: TIMESTEP
0.096
ITEM: NUMBER OF ATOMS
2
ITEM: BOX BOUNDS pp pp pp
0 1
0 1
0 1
ITEM: ATOMS id x y z E
0 0.616965 0.5 0.5 -0.303946
1 0.383035 0.5 0.5 -0.303946
ITEM: TIMESTEP
0.097
ITEM: NUMBER OF ATOMS
2
ITEM: BOX BOUNDS pp pp pp
0 1
0 1
0 1
ITEM: ATOMS id x y z E
0 0.616166 0.5 0.5 -0.303954
1 0.383834 0.5 0.5 -0.303954
ITEM: TIMESTEP
0.098
ITEM: NUMBER OF ATOMS
2
ITEM: BOX BOUNDS pp pp pp
0 1
0 1
0 1
ITEM: ATOMS id x y z E
0 0.615359 0.5 0.5 -0.303965
1 0.384641 0.5 0.5 -0.303965
ITEM: TIMESTEP
0.099
ITEM: NUMBER OF ATOMS
2
ITEM: BOX BOUNDS pp pp pp
0 1
0 1
0 1
ITEM: ATOMS id x y z E
0 0.614546 0.5 0.5 -0.303975
1 0.385454 0.5 0.5 -0.303975
ITEM: TIMESTEP
0.1
ITEM: NUMBER OF ATOMS
2
ITEM: BOX BOUNDS pp pp pp
0 1
0 1
0 1
ITEM: ATOMS id x y z E
0 0.613727 0.5 0.5 -0.303986
1 0.386273 0.5 0.5 -0.303986
ITEM: TIMESTEP
0.101
ITEM: NUMBER OF ATOMS
2
ITEM: BOX BOUNDS pp pp pp
0 1
0 1
0 1
ITEM: ATOMS id x y z E
0 0.612904 0.5 0.5 -0.304003
1 0.387095 0.5 0.5 -0.304003
ITEM: TIMESTEP
0.102
ITEM: NUMBER OF ATOMS
2
ITEM: BOX BOUNDS pp pp pp
0 1
0 1
0 1
ITEM: ATOMS id x y z E
0 0.612082 0.5 0.5 -0.30402
1 0.38792 0.5 0.5 -0.30402
ITEM: TIMESTEP
0.103
ITEM: NUMBER OF ATOMS
2
ITEM: BOX BOUNDS pp pp pp
0 1
0 1
0 1
ITEM: ATOMS id x y z E
0 0.611259 0.5 0.5 -0.304044
1 0.388744 0.5 0.5 -0.304044
ITEM: TIMESTEP
0.104
ITEM: NUMBER OF ATOMS
2
ITEM: BOX BOUNDS pp pp pp
0 1
0 1
0 1
ITEM: ATOMS id x y z E
0 0.610438 0.5 0.5 -0.304066
1 0.389564 0.5 0.5 -0.304066
ITEM: TIMESTEP
0.105
ITEM: NUMBER OF ATOMS
2
ITEM: BOX BOUNDS pp pp pp
0 1
0 1
0 1
ITEM: ATOMS id x y z E
0 0.609624 0.5 0.5 -0.304096
1 0.390379 0.5 0.5 -0.304096
ITEM: TIMESTEP
0.106
ITEM: NUMBER OF ATOMS
2
ITEM: BOX BOUNDS pp pp pp
0 1
0 1
0 1
ITEM: ATOMS id x y z E
0 0.608819 0.5 0.5 -0.304126
1 0.391183 0.5 0.5 -0.304126
ITEM: TIMESTEP
0.107
ITEM: NUMBER OF ATOMS
2
ITEM: BOX BOUNDS pp pp pp
0 1
0 1
0 1
ITEM: ATOMS id x y z E
0 0.608028 0.5 0.5 -0.304156
1 0.391975 0.5 0.5 -0.304156
ITEM: TIMESTEP
0.108
ITEM: NUMBER OF ATOMS
2
ITEM: BOX BOUNDS pp pp pp
0 1
0 1
0 1
ITEM: ATOMS id x y z E
0 0.607255 0.5 0.5 -0.304194
1 0.392748 0.5 0.5 -0.304194
ITEM: TIMESTEP
0.109
ITEM: NUMBER OF ATOMS
2
ITEM: BOX BOUNDS pp pp pp
0 1
0 1
0 1
ITEM: ATOMS id x y z E
0 0.606505 0.5 0.5 -0.304226
1 0.393497 0.5 0.5 -0.304226
ITEM: TIMESTEP
0.11
ITEM: NUMBER OF ATOMS
2
ITEM: BOX BOUNDS pp pp pp
0 1
0 1
0 1
ITEM: ATOMS id x y z E
0 0.605784 0.5 0.5 -0.304259
1 0.394219 0.5 0.5 -0.304259
ITEM: TIMESTEP
0.111
ITEM: NUMBER OF ATOMS
2
ITEM: BOX BOUNDS pp pp pp
0 1
0 1
0 1
ITEM: ATOMS id x y z E
0 0.605097 0.5 0.5 -0.304289
1 0.394905 0.5 0.5 -0.304289
ITEM: TIMESTEP
0.112
ITEM: NUMBER OF ATOMS
2
ITEM: BOX BOUNDS pp pp pp
0 1
0 1
0 1
ITEM: ATOMS id x y z E
0 0.604452 0.5 0.5 -0.304312
1 0.395551 0.5 0.5 -0.304312
ITEM: TIMESTEP
0.113
ITEM: NUMBER OF ATOMS
2
ITEM: BOX BOUNDS pp pp pp
0 1
0 1
0 1
ITEM: ATOMS id x y z E
0 0.603854 0.5 0.5 -0.304338
1 0.396149 0.5 0.5 -0.304338
ITEM: TIMESTEP
0.114
ITEM: NUMBER OF ATOMS
2
ITEM: BOX BOUNDS pp pp pp
0 1
0 1
0 1
ITEM: ATOMS id x y z E
0 0.603311 0.5 0.5 -0.304339
1 0.396692 0.5 0.5 -0.304339
ITEM: TIMESTEP
0.115
ITEM: NUMBER OF ATOMS
2
ITEM: BOX BOUNDS pp pp pp
0 1
0 1
0 1
ITEM: ATOMS id x y z E
0 0.60283 0.5 0.5 -0.304327
1 0.397173 0.5 0.5 -0.304327
ITEM: TIMESTEP
0.116
ITEM: NUMBER OF ATOMS
2
ITEM: BOX BOUNDS pp pp pp
0 1
0 1
0 1
ITEM: ATOMS id x y z E
0 0.602416 0.5 0.5 -0.3043
1 0.397586 0.5 0.5 -0.3043
ITEM: TIMESTEP
0.117
ITEM: NUMBER OF ATOMS
2
ITEM: BOX BOUNDS pp pp pp
0 1
0 1
0 1
ITEM: ATOMS id x y z E
0 0.602078 0.5 0.5 -0.304254
1 0.397925 0.5 0.5 -0.304254
ITEM: TIMESTEP
0.118
ITEM: NUMBER OF ATOMS
2
ITEM: BOX BOUNDS pp pp pp
0 1
0 1
0 1
ITEM: ATOMS id x y z E
0 0.601819 0.5 0.5 -0.304197
1 0.398184 0.5 0.5 -0.304197
ITEM: TIMESTEP
0.119
ITEM: NUMBER OF ATOMS
2
ITEM: BOX BOUNDS pp pp pp
0 1
0 1
0 1
ITEM: ATOMS id x y z E
0 0.601644 0.5 0.5 -0.30413
1 0.398359 0.5 0.5 -0.30413
ITEM: TIMESTEP
0.12
ITEM: NUMBER OF ATOMS
2
ITEM: BOX BOUNDS pp pp pp
0 1
0 1
0 1
ITEM: ATOMS id x y z E
0 0.601556 0.5 0.5 -0.304059
1 0.398447 0.5 0.5 -0.304059
ITEM: TIMESTEP
0.121
ITEM: NUMBER OF ATOMS
2
ITEM: BOX BOUNDS pp pp pp
0 1
0 1
0 1
ITEM: ATOMS id x y z E
0 0.601556 0.5 0.5 -0.303982
1 0.398447 0.5 0.5 -0.303982
ITEM: TIMESTEP
0.122
ITEM: NUMBER OF ATOMS
2
ITEM: BOX BOUNDS pp pp pp
0 1
0 1
0 1
ITEM: ATOMS id x y z E
0 0.601645 0.5 0.5 -0.30391
1 0.398358 0.5 0.5 -0.30391
ITEM: TIMESTEP
0.123
ITEM: NUMBER OF ATOMS
2
ITEM: BOX BOUNDS pp pp pp
0 1
0 1
0 1
ITEM: ATOMS id x y z E
0 0.601821 0.5 0.5 -0.303826
1 0.398182 0.5 0.5 -0.303826
ITEM: TIMESTEP
0.124
ITEM: NUMBER OF ATOMS
2
ITEM: BOX BOUNDS pp pp pp
0 1
0 1
0 1
ITEM: ATOMS id x y z E
0 0.602081 0.5 0.5 -0.303774
1 0.397922 0.5 0.5 -0.303774
ITEM: TIMESTEP
0.125
ITEM: NUMBER OF ATOMS
2
ITEM: BOX BOUNDS pp pp pp
0 1
0 1
0 1
ITEM: ATOMS id x y z E
0 0.602421 0.5 0.5 -0.30374
1 0.397582 0.5 0.5 -0.30374
ITEM: TIMESTEP
0.126
ITEM: NUMBER OF ATOMS
2
ITEM: BOX BOUNDS pp pp pp
0 1
0 1
0 1
ITEM: ATOMS id x y z E
0 0.602835 0.5 0.5 -0.303719
1 0.397168 0.5 0.5 -0.303719
ITEM: TIMESTEP
0.127
ITEM: NUMBER OF ATOMS
2
ITEM: BOX BOUNDS pp pp pp
0 1
0 1
0 1
ITEM: ATOMS id x y z E
0 0.603317 0.5 0.5 -0.303714
1 0.396686 0.5 0.5 -0.303714
ITEM: TIMESTEP
0.128
ITEM: NUMBER OF ATOMS
2
ITEM: BOX BOUNDS pp pp pp
0 1
0 1
0 1
ITEM: ATOMS id x y z E
0 0.603861 0.5 0.5 -0.303716
1 0.396142 0.5 0.5 -0.303716
ITEM: TIMESTEP
0.129
ITEM: NUMBER OF ATOMS
2
ITEM: BOX BOUNDS pp pp pp
0 1
0 1
0 1
ITEM: ATOMS id x y z E
0 0.604459 0.5 0.5 -0.30372
1 0.395544 0.5 0.5 -0.30372
ITEM: TIMESTEP
0.13
ITEM: NUMBER OF ATOMS
2
ITEM: BOX BOUNDS pp pp pp
0 1
0 1
0 1
ITEM: ATOMS id x y z E
0 0.605105 0.5 0.5 -0.303752
1 0.394898 0.5 0.5 -0.303752
ITEM: TIMESTEP
0.131
ITEM: NUMBER OF ATOMS
2
ITEM: BOX BOUNDS pp pp pp
0 1
0 1
0 1
ITEM: ATOMS id x y z E
0 0.605792 0.5 0.5 -0.303782
1 0.394211 0.5 0.5 -0.303782
ITEM: TIMESTEP
0.132
ITEM: NUMBER OF ATOMS
2
ITEM: BOX BOUNDS pp pp pp
0 1
0 1
0 1
ITEM: ATOMS id x y z E
0 0.606514 0.5 0.5 -0.303815
1 0.393489 0.5 0.5 -0.303815
ITEM: TIMESTEP
0.133
ITEM: NUMBER OF ATOMS
2
ITEM: BOX BOUNDS pp pp pp
0 1
0 1
0 1
ITEM: ATOMS id x y z E
0 0.607264 0.5 0.5 -0.303853
1 0.392739 0.5 0.5 -0.303853
ITEM: TIMESTEP
0.134
ITEM: NUMBER OF ATOMS
2
ITEM: BOX BOUNDS pp pp pp
0 1
0 1
0 1
ITEM: ATOMS id x y z E
0 0.608037 0.5 0.5 -0.303886
1 0.391966 0.5 0.5 -0.303886
ITEM: TIMESTEP
0.135
ITEM: NUMBER OF ATOMS
2
ITEM: BOX BOUNDS pp pp pp
0 1
0 1
0 1
ITEM: ATOMS id x y z E
0 0.608829 0.5 0.5 -0.303921
1 0.391174 0.5 0.5 -0.303921
ITEM: TIMESTEP
0.136
ITEM: NUMBER OF ATOMS
2
ITEM: BOX BOUNDS pp pp pp
0 1
0 1
0 1
ITEM: ATOMS id x y z E
0 0.609633 0.5 0.5 -0.303951
1 0.39037 0.5 0.5 -0.303951
ITEM: TIMESTEP
0.137
ITEM: NUMBER OF ATOMS
2
ITEM: BOX BOUNDS pp pp pp
0 1
0 1
0 1
ITEM: ATOMS id x y z E
0 0.610448 0.5 0.5 -0.303977
1 0.389555 0.5 0.5 -0.303977
ITEM: TIMESTEP
0.138
ITEM: NUMBER OF ATOMS
2
ITEM: BOX BOUNDS pp pp pp
0 1
0 1
0 1
ITEM: ATOMS id x y z E
0 0.611269 0.5 0.5 -0.304004
1 0.388734 0.5 0.5 -0.304004
ITEM: TIMESTEP
0.139
ITEM: NUMBER OF ATOMS
2
ITEM: BOX BOUNDS pp pp pp
0 1
0 1
0 1
ITEM: ATOMS id x y z E
0 0.612091 0.5 0.5 -0.304023
1 0.387911 0.5 0.5 -0.304023
ITEM: TIMESTEP
0.14
ITEM: NUMBER OF ATOMS
2
ITEM: BOX BOUNDS pp pp pp
0 1
0 1
0 1
ITEM: ATOMS id x y z E
0 0.612914 0.5 0.5 -0.304042
1 0.387086 0.5 0.5 -0.304042
ITEM: TIMESTEP
0.141
ITEM: NUMBER OF ATOMS
2
ITEM: BOX BOUNDS pp pp pp
0 1
0 1
0 1
ITEM: ATOMS id x y z E
0 0.613736 0.5 0.5 -0.304057
1 0.386263 0.5 0.5 -0.304057
ITEM: TIMESTEP
0.142
ITEM: NUMBER OF ATOMS
2
ITEM: BOX BOUNDS pp pp pp
0 1
0 1
0 1
ITEM: ATOMS id x y z E
0 0.614555 0.5 0.5 -0.304072
1 0.385445 0.5 0.5 -0.304072
ITEM: TIMESTEP
0.143
ITEM: NUMBER OF ATOMS
2
ITEM: BOX BOUNDS pp pp pp
0 1
0 1
0 1
ITEM: ATOMS id x y z E
0 0.615368 0.5 0.5 -0.304083
1 0.384631 0.5 0.5 -0.304083
ITEM: TIMESTEP
0.144
ITEM: NUMBER OF ATOMS
2
ITEM: BOX BOUNDS pp pp pp
0 1
0 1
0 1
ITEM: ATOMS id x y z E
0 0.616175 0.5 0.5 -0.30409
1 0.383825 0.5 0.5 -0.30409
ITEM: TIMESTEP
0.145
ITEM: NUMBER OF ATOMS
2
ITEM: BOX BOUNDS pp pp pp
0 1
0 1
0 1
ITEM: ATOMS id x y z E
0 0.616974 0.5 0.5 -0.304097
1 0.383026 0.5 0.5 -0.304097
ITEM: TIMESTEP
0.146
ITEM: NUMBER OF ATOMS
2
ITEM: BOX BOUNDS pp pp pp
0 1
0 1
0 1
ITEM: ATOMS id x y z E
0 0.617765 0.5 0.5 -0.304103
1 0.382235 0.5 0.5 -0.304103
ITEM: TIMESTEP
0.147
ITEM: NUMBER OF ATOMS
2
ITEM: BOX BOUNDS pp pp pp
0 1
0 1
0 1
ITEM: ATOMS id x y z E
0 0.618545 0.5 0.5 -0.304108
1 0.381455 0.5 0.5 -0.304108
ITEM: TIMESTEP
0.148
ITEM: NUMBER OF ATOMS
2
ITEM: BOX BOUNDS pp pp pp
0 1
0 1
0 1
ITEM: ATOMS id x y z E
0 0.619316 0.5 0.5 -0.304109
1 0.380684 0.5 0.5 -0.304109
ITEM: TIMESTEP
0.149
ITEM: NUMBER OF ATOMS
2
ITEM: BOX BOUNDS pp pp pp
0 1
0 1
0 1
ITEM: ATOMS id x y z E
0 0.620076 0.5 0.5 -0.304111
1 0.379925 0.5 0.5 -0.304111
ITEM: TIMESTEP
0.15
ITEM: NUMBER OF ATOMS
2
ITEM: BOX BOUNDS pp pp pp
0 1
0 1
0 1
ITEM: ATOMS id x y z E
0 0.620824 0.5 0.5 -0.304112
1 0.379176 0.5 0.5 -0.304112
ITEM: TIMESTEP
0.151
ITEM: NUMBER OF ATOMS
2
ITEM: BOX BOUNDS pp pp pp
0 1
0 1
0 1
ITEM: ATOMS id x y z E
0 0.621561 0.5 0.5 -0.304113
1 0.378439 0.5 0.5 -0.304113
ITEM: TIMESTEP
0.152
ITEM: NUMBER OF ATOMS
2
ITEM: BOX BOUNDS pp pp pp
0 1
0 1
0 1
ITEM: ATOMS id x y z E
0 0.622287 0.5 0.5 -0.304113
1 0.377713 0.5 0.5 -0.304113
ITEM: TIMESTEP
0.153
ITEM: NUMBER OF ATOMS
2
ITEM: BOX BOUNDS pp pp pp
0 1
0 1
0 1
ITEM: ATOMS id x y z E
0 0.623001 0.5 0.5 -0.304112
1 0.376999 0.5 0.5 -0.304112
ITEM: TIMESTEP
0.154
ITEM: NUMBER OF ATOMS
2
ITEM: BOX BOUNDS pp pp pp
0 1
0 1
0 1
ITEM: ATOMS id x y z E
0 0.623703 0.5 0.5 -0.304111
1 0.376297 0.5 0.5 -0.304111
ITEM: TIMESTEP
0.155
ITEM: NUMBER OF ATOMS
2
ITEM: BOX BOUNDS pp pp pp
0 1
0 1
0 1
ITEM: ATOMS id x y z E
0 0.624393 0.5 0.5 -0.30411
1 0.375607 0.5 0.5 -0.30411
ITEM: TIMESTEP
0.156
ITEM: NUMBER OF ATOMS
2
ITEM: BOX BOUNDS pp pp pp
0 1
0 1
0 1
ITEM: ATOMS id x y z E
0 0.625071 0.5 0.5 -0.304107
1 0.374929 0.5 0.5 -0.304107
ITEM: TIMESTEP
0.157
ITEM: NUMBER OF ATOMS
2
ITEM: BOX BOUNDS pp pp pp
0 1
0 1
0 1
ITEM: ATOMS id x y z E
0 0.625737 0.5 0.5 -0.304106
1 0.374263 0.5 0.5 -0.304106
ITEM: TIMESTEP
0.158
ITEM: NUMBER OF ATOMS
2
ITEM: BOX BOUNDS pp pp pp
0 1
0 1
0 1
ITEM: ATOMS id x y z E
0 0.626391 0.5 0.5 -0.304104
1 0.373609 0.5 0.5 -0.304104
ITEM: TIMESTEP
0.159
ITEM: NUMBER OF ATOMS
2
ITEM: BOX BOUNDS pp pp pp
0 1
0 1
0 1
ITEM: ATOMS id x y z E
0 0.627034 0.5 0.5 -0.304102
1 0.372967 0.5 0.5 -0.304102
ITEM: TIMESTEP
0.16
ITEM: NUMBER OF ATOMS
2
ITEM: BOX BOUNDS pp pp pp
0 1
0 1
0 1
ITEM: ATOMS id x y z E
0 0.627664 0.5 0.5 -0.3041
1 0.372336 0.5 0.5 -0.3041
ITEM: TIMESTEP
0.161
ITEM: NUMBER OF ATOMS
2
ITEM: BOX BOUNDS pp pp pp
0 1
0 1
0 1
ITEM: ATOMS id x y z E
0 0.628283 0.5 0.5 -0.3041
1 0.371717 0.5 0.5 -0.3041
ITEM: TIMESTEP
0.162
ITEM: NUMBER OF ATOMS
2
ITEM: BOX BOUNDS pp pp pp
0 1
0 1
0 1
ITEM: ATOMS id x y z E
0 0.62889 0.5 0.5 -0.304098
1 0.37111 0.5 0.5 -0.304098
ITEM: TIMESTEP
0.163
ITEM: NUMBER OF ATOMS
2
ITEM: BOX BOUNDS pp pp pp
0 1
0 1
0 1
ITEM: ATOMS id x y z E
0 0.629486 0.5 0.5 -0.304095
1 0.370514 0.5 0.5 -0.304095
ITEM: TIMESTEP
0.164
ITEM: NUMBER OF ATOMS
2
ITEM: BOX BOUNDS pp pp pp
0 1
0 1
0 1
ITEM: ATOMS id x y z E
0 0.63007 0.5 0.5 -0.304092
1 0.36993 0.5 0.5 -0.304092
ITEM: TIMESTEP
0.165
ITEM: NUMBER OF ATOMS
2
ITEM: BOX BOUNDS pp pp pp
0 1
0 1
0 1
ITEM: ATOMS id x y z E
0 0.630644 0.5 0.5 -0.304089
1 0.369356 0.5 0.5 -0.304089
ITEM: TIMESTEP
0.166
ITEM: NUMBER OF ATOMS
2
ITEM: BOX BOUNDS pp pp pp
0 1
0 1
0 1
ITEM: ATOMS id x y z E
0 0.631206 0.5 0.5 -0.304086
1 0.368794 0.5 0.5 -0.304086
ITEM: TIMESTEP
0.167
ITEM: NUMBER OF ATOMS
2
ITEM: BOX BOUNDS pp pp pp
0 1
0 1
0 1
ITEM: ATOMS id x y z E
0 0.631758 0.5 0.5 -0.304085
1 0.368243 0.5 0.5 -0.304085
ITEM: TIMESTEP
0.168
ITEM: NUMBER OF ATOMS
2
ITEM: BOX BOUNDS pp pp pp
0 1
0 1
0 1
ITEM: ATOMS id x y z E
0 0.632298 0.5 0.5 -0.304085
1 0.367702 0.5 0.5 -0.304085
ITEM: TIMESTEP
0.169
ITEM: NUMBER OF ATOMS
2
ITEM: BOX BOUNDS pp pp pp
0 1
0 1
0 1
ITEM: ATOMS id x y z E
0 0.632828 0.5 0.5 -0.304084
1 0.367172 0.5 0.5 -0.304084
ITEM: TIMESTEP
0.17
ITEM: NUMBER OF ATOMS
2
ITEM: BOX BOUNDS pp pp pp
0 1
0 1
0 1
ITEM: ATOMS id x y z E
0 0.633348 0.5 0.5 -0.30408
1 0.366653 0.5 0.5 -0.30408
ITEM: TIMESTEP
0.171
ITEM: NUMBER OF ATOMS
2
ITEM: BOX BOUNDS pp pp pp
0 1
0 1
0 1
ITEM: ATOMS id x y z E
0 0.633857 0.5 0.5 -0.304077
1 0.366143 0.5 0.5 -0.304077
ITEM: TIMESTEP
0.172
ITEM: NUMBER OF ATOMS
2
ITEM: BOX BOUNDS pp pp pp
0 1
0 1
0 1
ITEM: ATOMS id x y z E
0 0.634356 0.5 0.5 -0.304078
1 0.365644 0.5 0.5 -0.304078
ITEM: TIMESTEP
0.173
ITEM: NUMBER OF ATOMS
2
ITEM: BOX BOUNDS pp pp pp
0 1
0 1
0 1
ITEM: ATOMS id x y z E
0 0.634845 0.5 0.5 -0.304075
1 0.365155 0.5 0.5 -0.304075
ITEM: TIMESTEP
0.174
ITEM: NUMBER OF ATOMS
2
ITEM: BOX BOUNDS pp pp pp
0 1
0 1
0 1
ITEM: ATOMS id x y z E
0 0.635324 0.5 0.5 -0.304072
1 0.364676 0.5 0.5 -0.304072
ITEM: TIMESTEP
0.175
ITEM: NUMBER OF ATOMS
2
ITEM: BOX BOUNDS pp pp pp
0 1
0 1
0 1
ITEM: ATOMS id x y z E
0 0.635793 0.5 0.5 -0.304074
1 0.364207 0.5 0.5 -0.304074
ITEM: TIMESTEP
0.176
ITEM: NUMBER OF ATOMS
2
ITEM: BOX BOUNDS pp pp pp
0 1
0 1
0 1
ITEM: ATOMS id x y z E
0 0.636253 0.5 0.5 -0.304069
1 0.363747 0.5 0.5 -0.304069
ITEM: TIMESTEP
0.177
ITEM: NUMBER OF ATOMS
2
ITEM: BOX BOUNDS pp pp pp
0 1
0 1
0 1
ITEM: ATOMS id x y z E
0 0.636704 0.5 0.5 -0.304069
1 0.363296 0.5 0.5 -0.304069
ITEM: TIMESTEP
0.178
ITEM: NUMBER OF ATOMS
2
ITEM: BOX BOUNDS pp pp pp
0 1
0 1
0 1
ITEM: ATOMS id x y z E
0 0.637145 0.5 0.5 -0.304067
1 0.362855 0.5 0.5 -0.304067
ITEM: TIMESTEP
0.179
ITEM: NUMBER OF ATOMS
2
ITEM: BOX BOUNDS pp pp pp
0 1
0 1
0 1
ITEM: ATOMS id x y z E
0 0.637577 0.5 0.5 -0.304065
1 0.362424 0.5 0.5 -0.304065
ITEM: TIMESTEP
0.18
ITEM: NUMBER OF ATOMS
2
ITEM: BOX BOUNDS pp pp pp
0 1
0 1
0 1
ITEM: ATOMS id x y z E
0 0.637999 0.5 0.5 -0.304065
1 0.362001 0.5 0.5 -0.304065
ITEM: TIMESTEP
0.181
ITEM: NUMBER OF ATOMS
2
ITEM: BOX BOUNDS pp pp pp
0 1
0 1
0 1
ITEM: ATOMS id x y z E
0 0.638413 0.5 0.5 -0.304063
1 0.361587 0.5 0.5 -0.304063
ITEM: TIMESTEP
0.182
ITEM: NUMBER OF ATOMS
2
ITEM: BOX BOUNDS pp pp pp
0 1
0 1
0 1
ITEM: ATOMS id x y z E
0 0.638818 0.5 0.5 -0.304062
1 0.361182 0.5 0.5 -0.304062
ITEM: TIMESTEP
0.183
ITEM: NUMBER OF ATOMS
2
ITEM: BOX BOUNDS pp pp pp
0 1
0 1
0 1
ITEM: ATOMS id x y z E