ITEM: TIMESTEP
0
ITEM: NUMBER OF ATOMS
500
ITEM: BOX BOUNDS pp pp pp
0 1
0 1
0 1
ITEM: ATOMS id x y z E
0 0.0499998 0.0499998 0.0499997 -7299.08
1 0.0499995 0.15 0.15 -7299.08
2 0.15 0.0499996 0.15 -7299.08
3 0.15 0.15 0.0499997 -7299.08
4 0.0499995 0.0499995 0.25 -7299.08
5 0.0499992 0.15 0.35 -7299.08
6 0.149999 0.0499993 0.35 -7299.08
7 0.149999 0.149999 0.25 -7299.08
8 0.0499991 0.0499991 0.45 -7299.08
9 0.0499989 0.149999 0.55 -7299.08
10 0.149999 0.049999 0.55 -7299.08
11 0.149999 0.149999 0.45 -7299.08
12 0.0499987 0.0499987 0.65 -7299.08
13 0.0499985 0.149999 0.75 -7299.08
14 0.149999 0.0499986 0.75 -7299.08
15 0.149999 0.149999 0.65 -7299.08
16 0.0499985 0.0499985 0.85 -7299.08
17 0.0499984 0.149997 0.950002 -7299.08
18 0.149996 0.0499984 0.950002 -7299.08
19 0.149998 0.149998 0.850001 -7299.08
20 0.0499982 0.249998 0.0499998 -7299.08
21 0.049998 0.349998 0.15 -7299.08
22 0.149998 0.249998 0.15 -7299.08
23 0.149998 0.349999 0.05 -7299.08
24 0.0499981 0.249999 0.25 -7299.08
25 0.0499978 0.349999 0.35 -7299.08
26 0.149998 0.249999 0.35 -7299.08
27 0.149998 0.349999 0.25 -7299.08
28 0.0499978 0.249999 0.45 -7299.08
29 0.0499976 0.349999 0.55 -7299.08
30 0.149998 0.249999 0.55 -7299.08
31 0.149998 0.349999 0.45 -7299.08
32 0.0499976 0.249999 0.65 -7299.08
33 0.0499973 0.349999 0.75 -7299.08
34 0.149997 0.249999 0.75 -7299.08
35 0.149997 0.349999 0.65 -7299.08
36 0.0499973 0.249999 0.85 -7299.08
37 0.0499972 0.349997 0.950002 -7299.08
38 0.149997 0.249995 0.950004 -7299.08
39 0.149997 0.349999 0.850001 -7299.08
40 0.0499972 0.449998 0.0499998 -7299.08
41 0.049997 0.549999 0.15 -7299.08
42 0.149997 0.449999 0.15 -7299.08
43 0.149997 0.549999 0.0499999 -7299.08
44 0.0499971 0.449998 0.25 -7299.08
45 0.0499968 0.549999 0.35 -7299.08
46 0.149997 0.449999 0.35 -7299.08
47 0.149997 0.549999 0.25 -7299.08
48 0.0499968 0.449999 0.45 -7299.08
49 0.0499966 0.549999 0.55 -7299.08
50 0.149997 0.449999 0.55 -7299.08
51 0.149997 0.549999 0.45 -7299.08
52 0.0499965 0.449999 0.65 -7299.08
53 0.0499963 0.549999 0.75 -7299.08
54 0.149996 0.449999 0.75 -7299.08
55 0.149996 0.549999 0.65 -7299.08
56 0.0499963 0.449999 0.850001 -7299.08
57 0.0499962 0.549997 0.950003 -7299.08
58 0.149996 0.449998 0.950005 -7299.08
59 0.149996 0.549999 0.850001 -7299.08
60 0.0499962 0.649999 0.0500001 -7299.08
61 0.0499959 0.749999 0.150001 -7299.08
62 0.149996 0.649999 0.150001 -7299.08
63 0.149996 0.749999 0.0500003 -7299.08
64 0.049996 0.649999 0.25 -7299.08
65 0.0499958 0.749999 0.35 -7299.08
66 0.149996 0.649999 0.35 -7299.08
67 0.149996 0.749999 0.25 -7299.08
68 0.0499958 0.649999 0.450001 -7299.08
69 0.0499955 0.749999 0.55 -7299.08
70 0.149996 0.649999 0.55 -7299.08
71 0.149996 0.749999 0.45 -7299.08
72 0.0499955 0.649999 0.65 -7299.08
73 0.0499953 0.749999 0.750001 -7299.08
74 0.149995 0.649999 0.750001 -7299.08
75 0.149995 0.749999 0.650001 -7299.08
76 0.0499953 0.649999 0.850001 -7299.08
77 0.0499952 0.749997 0.950003 -7299.08
78 0.149995 0.649995 0.950005 -7299.08
79 0.149995 0.749999 0.850001 -7299.08
80 0.0499952 0.85 0.0500006 -7299.08
81 0.0499953 0.950008 0.150009 -7299.08
82 0.149995 0.85 0.150001 -7299.08
83 0.149993 0.950009 0.0499938 -7299.08
84 0.0499952 0.85 0.250001 -7299.08
85 0.0499952 0.950008 0.349992 -7299.08
86 0.149995 0.850001 0.350001 -7299.08
87 0.149995 0.950009 0.249991 -7299.08
88 0.0499953 0.850001 0.450001 -7299.08
89 0.0499953 0.950009 0.549991 -7299.08
90 0.149995 0.850001 0.55 -7299.08
91 0.149995 0.95001 0.450009 -7299.08
92 0.0499954 0.850001 0.650001 -7299.08
93 0.0499954 0.950009 0.750009 -7299.08
94 0.149995 0.850001 0.750001 -7299.08
95 0.149995 0.95001 0.649991 -7299.08
96 0.0499955 0.850002 0.850001 -7299.08
97 0.0499955 0.950012 0.950012 -7299.08
98 0.149996 0.849997 0.950005 -7299.08
99 0.149996 0.95001 0.849992 -7299.08
100 0.249987 0.0500007 0.0499915 -7299.08
101 0.249996 0.15 0.15 -7299.08
102 0.349996 0.0500004 0.150001 -7299.08
103 0.349996 0.150001 0.0500004 -7299.08
104 0.249994 0.0499985 0.250001 -7299.08
105 0.249996 0.15 0.350001 -7299.08
106 0.349996 0.0500001 0.350001 -7299.08
107 0.349996 0.15 0.250001 -7299.08
108 0.249994 0.0499981 0.450001 -7299.08
109 0.249996 0.15 0.550001 -7299.08
110 0.349996 0.0499997 0.550001 -7299.08
111 0.349996 0.15 0.450001 -7299.08
112 0.249994 0.0499978 0.650001 -7299.08
113 0.249996 0.15 0.750001 -7299.08
114 0.349996 0.0499994 0.750001 -7299.08
115 0.349996 0.149999 0.650001 -7299.08
116 0.249994 0.0499975 0.850001 -7299.08
117 0.249983 0.149999 0.950013 -7299.08
118 0.349993 0.0499993 0.950003 -7299.08
119 0.349996 0.149999 0.850001 -7299.08
120 0.249986 0.249999 0.0499917 -7299.08
121 0.249996 0.349999 0.150001 -7299.08
122 0.349996 0.249999 0.150001 -7299.08
123 0.349995 0.349999 0.0500005 -7299.08
124 0.249996 0.249999 0.250001 -7299.08
125 0.249996 0.349999 0.350001 -7299.08
126 0.349996 0.249999 0.350001 -7299.08
127 0.349996 0.349999 0.250001 -7299.08
128 0.249996 0.249999 0.450001 -7299.08
129 0.249996 0.349999 0.550001 -7299.08
130 0.349996 0.249999 0.550001 -7299.08
131 0.349996 0.349999 0.450001 -7299.08
132 0.249996 0.249999 0.650001 -7299.08
133 0.249996 0.349999 0.750001 -7299.08
134 0.349996 0.249999 0.750001 -7299.08
135 0.349996 0.349999 0.650001 -7299.08
136 0.249996 0.249999 0.850001 -7299.08
137 0.249983 0.349999 0.950014 -7299.08
138 0.349995 0.249995 0.950005 -7299.08
139 0.349996 0.349999 0.850001 -7299.08
140 0.249987 0.449999 0.0499917 -7299.08
141 0.249996 0.549999 0.150001 -7299.08
142 0.349996 0.449999 0.150001 -7299.08
143 0.349996 0.549999 0.0500005 -7299.08
144 0.249996 0.449999 0.250001 -7299.08
145 0.249996 0.549999 0.350001 -7299.08
146 0.349996 0.449999 0.350001 -7299.08
147 0.349996 0.549999 0.250001 -7299.08
148 0.249996 0.449999 0.450001 -7299.08
149 0.249996 0.549999 0.550001 -7299.08
150 0.349996 0.449999 0.550001 -7299.08
151 0.349996 0.549999 0.450001 -7299.08
152 0.249996 0.449999 0.650001 -7299.08
153 0.249996 0.549999 0.750001 -7299.08
154 0.349996 0.449999 0.750001 -7299.08
155 0.349996 0.549999 0.650001 -7299.08
156 0.249996 0.449999 0.850001 -7299.08
157 0.249983 0.549999 0.950014 -7299.08
158 0.349993 0.449997 0.950005 -7299.08
159 0.349996 0.549999 0.850001 -7299.08
160 0.249987 0.649999 0.0499917 -7299.08
161 0.249996 0.749999 0.150001 -7299.08
162 0.349996 0.649999 0.150001 -7299.08
163 0.349996 0.749999 0.0500005 -7299.08
164 0.249996 0.649999 0.250001 -7299.08
165 0.249996 0.749999 0.350001 -7299.08
166 0.349996 0.649999 0.350001 -7299.08
167 0.349996 0.749999 0.250001 -7299.08
168 0.249996 0.649999 0.450001 -7299.08
169 0.249996 0.749999 0.550001 -7299.08
170 0.349996 0.649999 0.550001 -7299.08
171 0.349996 0.749999 0.450001 -7299.08
172 0.249996 0.649999 0.650001 -7299.08
173 0.249996 0.749999 0.750001 -7299.08
174 0.349996 0.649999 0.750001 -7299.08
175 0.349996 0.749999 0.650001 -7299.08
176 0.249996 0.649999 0.850001 -7299.08
177 0.249983 0.749999 0.950014 -7299.08
178 0.349993 0.649997 0.950005 -7299.08
179 0.349996 0.749999 0.850001 -7299.08
180 0.249987 0.849999 0.0499917 -7299.08
181 0.249976 0.950019 0.150001 -7299.08
182 0.349995 0.850001 0.150001 -7299.08
183 0.349993 0.950009 0.0499934 -7299.08
184 0.249995 0.850001 0.250001 -7299.08
185 0.249975 0.95002 0.350001 -7299.08
186 0.349995 0.850001 0.350001 -7299.08
187 0.349995 0.95001 0.249991 -7299.08
188 0.249995 0.850001 0.450001 -7299.08
189 0.249976 0.95002 0.550001 -7299.08
190 0.349995 0.850001 0.550001 -7299.08
191 0.349986 0.95001 0.450001 -7299.08
192 0.249995 0.850002 0.650001 -7299.08
193 0.249984 0.95002 0.750009 -7299.08
194 0.349995 0.850002 0.750001 -7299.08
195 0.349986 0.95001 0.65 -7299.08
196 0.249995 0.850002 0.850001 -7299.08
197 0.249986 0.950021 0.950012 -7299.08
198 0.349995 0.849997 0.950005 -7299.08
199 0.349995 0.95001 0.849991 -7299.08
200 0.449987 0.0500007 0.0499915 -7299.08
201 0.449996 0.150001 0.15 -7299.08
202 0.549995 0.0500004 0.150001 -7299.08
203 0.549995 0.15 0.0500004 -7299.08
204 0.449993 0.0499984 0.250001 -7299.08
205 0.449995 0.15 0.350001 -7299.08
206 0.549995 0.0500001 0.350001 -7299.08
207 0.549995 0.15 0.250001 -7299.08
208 0.449993 0.0499981 0.450001 -7299.08
209 0.449995 0.15 0.550001 -7299.08
210 0.549995 0.0499997 0.550001 -7299.08
211 0.549995 0.15 0.450001 -7299.08
212 0.449993 0.0499977 0.650001 -7299.08
213 0.449995 0.15 0.750001 -7299.08
214 0.549995 0.0499994 0.750001 -7299.08
215 0.549995 0.149999 0.650001 -7299.08
216 0.449993 0.0499975 0.850001 -7299.08
217 0.449986 0.149999 0.950014 -7299.08
218 0.549993 0.0499994 0.950003 -7299.08
219 0.549995 0.149999 0.850002 -7299.08
220 0.449986 0.249999 0.0499919 -7299.08
221 0.449995 0.349999 0.150001 -7299.08
222 0.549995 0.249999 0.150001 -7299.08
223 0.549995 0.349999 0.0500007 -7299.08
224 0.449995 0.249999 0.250001 -7299.08
225 0.449995 0.349999 0.350001 -7299.08
226 0.549995 0.249999 0.350001 -7299.08
227 0.549995 0.349999 0.250001 -7299.08
228 0.449995 0.249999 0.450001 -7299.08
229 0.449995 0.349999 0.550001 -7299.08
230 0.549995 0.249999 0.550001 -7299.08
231 0.549995 0.349999 0.450001 -7299.08
232 0.449995 0.249999 0.650001 -7299.08
233 0.449995 0.349999 0.750001 -7299.08
234 0.549995 0.249999 0.750001 -7299.08
235 0.549995 0.349999 0.650001 -7299.08
236 0.449995 0.249999 0.850002 -7299.08
237 0.449984 0.349997 0.950014 -7299.08
238 0.549995 0.249995 0.950005 -7299.08
239 0.549995 0.349999 0.850002 -7299.08
240 0.449986 0.449999 0.0499919 -7299.08
241 0.449995 0.549999 0.150001 -7299.08
242 0.549995 0.449999 0.150001 -7299.08
243 0.549995 0.549999 0.0500007 -7299.08
244 0.449995 0.449999 0.250001 -7299.08
245 0.449995 0.549999 0.350001 -7299.08
246 0.549995 0.449999 0.350001 -7299.08
247 0.549995 0.549999 0.250001 -7299.08
248 0.449995 0.449999 0.450001 -7299.08
249 0.449995 0.549999 0.550001 -7299.08
250 0.549995 0.449999 0.550001 -7299.08
251 0.549995 0.549999 0.450001 -7299.08
252 0.449995 0.449999 0.650001 -7299.08
253 0.449995 0.549999 0.750001 -7299.08
254 0.549995 0.449999 0.750001 -7299.08
255 0.549995 0.549999 0.650001 -7299.08
256 0.449995 0.449999 0.850002 -7299.08
257 0.449984 0.549997 0.950014 -7299.08
258 0.549993 0.449997 0.950005 -7299.08
259 0.549995 0.549999 0.850002 -7299.08
260 0.449986 0.649999 0.0499919 -7299.08
261 0.449995 0.749999 0.150001 -7299.08
262 0.549995 0.649999 0.150001 -7299.08
263 0.549995 0.749999 0.0500007 -7299.08
264 0.449995 0.649999 0.250001 -7299.08
265 0.449995 0.749999 0.350001 -7299.08
266 0.549995 0.649999 0.350001 -7299.08
267 0.549995 0.749999 0.250001 -7299.08
268 0.449995 0.649999 0.450001 -7299.08
269 0.449995 0.749999 0.550001 -7299.08
270 0.549995 0.649999 0.550001 -7299.08
271 0.549995 0.749999 0.450001 -7299.08
272 0.449995 0.649999 0.650001 -7299.08
273 0.449995 0.749999 0.750001 -7299.08
274 0.549995 0.649999 0.750001 -7299.08
275 0.549995 0.749999 0.650001 -7299.08
276 0.449995 0.649999 0.850002 -7299.08
277 0.449986 0.749999 0.950014 -7299.08
278 0.549993 0.649997 0.950005 -7299.08
279 0.549995 0.749999 0.850002 -7299.08
280 0.449986 0.849999 0.0499919 -7299.08
281 0.449993 0.950019 0.150001 -7299.08
282 0.549995 0.850001 0.150001 -7299.08
283 0.549993 0.950009 0.0499937 -7299.08
284 0.449995 0.850001 0.250001 -7299.08
285 0.449984 0.95002 0.349992 -7299.08
286 0.549995 0.850001 0.350001 -7299.08
287 0.549995 0.95001 0.249991 -7299.08
288 0.449995 0.850001 0.450001 -7299.08
289 0.449984 0.95002 0.549992 -7299.08
290 0.549995 0.850001 0.550001 -7299.08
291 0.549986 0.95001 0.450001 -7299.08
292 0.449995 0.850002 0.650001 -7299.08
293 0.449984 0.95002 0.750009 -7299.08
294 0.549995 0.850002 0.750001 -7299.08
295 0.549986 0.95001 0.65 -7299.08
296 0.449995 0.850002 0.850001 -7299.08
297 0.449986 0.950021 0.950012 -7299.08
298 0.549995 0.849997 0.950005 -7299.08
299 0.549995 0.95001 0.849991 -7299.08
300 0.649987 0.0500007 0.0499915 -7299.08
301 0.649996 0.150001 0.15 -7299.08
302 0.749996 0.0500004 0.150001 -7299.08
303 0.749996 0.150001 0.0500004 -7299.08
304 0.649994 0.0499985 0.250001 -7299.08
305 0.649996 0.15 0.350001 -7299.08
306 0.749996 0.0500001 0.350001 -7299.08
307 0.749996 0.15 0.250001 -7299.08
308 0.649994 0.0499981 0.450001 -7299.08
309 0.649996 0.15 0.550001 -7299.08
310 0.749996 0.0499998 0.550001 -7299.08
311 0.749996 0.15 0.450001 -7299.08
312 0.649994 0.0499978 0.650001 -7299.08
313 0.649996 0.15 0.750001 -7299.08
314 0.749996 0.0499994 0.750001 -7299.08
315 0.749996 0.149999 0.650001 -7299.08
316 0.649993 0.0499975 0.850001 -7299.08
317 0.649982 0.149999 0.950014 -7299.08
318 0.749993 0.0499994 0.950003 -7299.08
319 0.749995 0.149999 0.850001 -7299.08
320 0.649986 0.249999 0.0499917 -7299.08
321 0.649995 0.349999 0.150001 -7299.08
322 0.749995 0.249999 0.150001 -7299.08
323 0.749995 0.349999 0.0500006 -7299.08
324 0.649995 0.249999 0.250001 -7299.08
325 0.649995 0.349999 0.350001 -7299.08
326 0.749995 0.249999 0.350001 -7299.08
327 0.749995 0.349999 0.250001 -7299.08
328 0.649995 0.249999 0.450001 -7299.08
329 0.649995 0.349999 0.550001 -7299.08
330 0.749995 0.249999 0.550001 -7299.08
331 0.749995 0.349999 0.450001 -7299.08
332 0.649995 0.249999 0.650001 -7299.08
333 0.649995 0.349999 0.750001 -7299.08
334 0.749995 0.249999 0.750001 -7299.08
335 0.749995 0.349999 0.650001 -7299.08
336 0.649995 0.249999 0.850001 -7299.08
337 0.649984 0.349997 0.950014 -7299.08
338 0.749995 0.249995 0.950005 -7299.08
339 0.749995 0.349999 0.850001 -7299.08
340 0.649986 0.449999 0.0499918 -7299.08
341 0.649995 0.549999 0.150001 -7299.08
342 0.749995 0.449999 0.150001 -7299.08
343 0.749995 0.549999 0.0500005 -7299.08
344 0.649995 0.449999 0.250001 -7299.08
345 0.649995 0.549999 0.350001 -7299.08
346 0.749995 0.449999 0.350001 -7299.08
347 0.749995 0.549999 0.250001 -7299.08
348 0.649995 0.449999 0.450001 -7299.08
349 0.649995 0.549999 0.550001 -7299.08
350 0.749995 0.449999 0.550001 -7299.08
351 0.749995 0.549999 0.450001 -7299.08
352 0.649995 0.449999 0.650001 -7299.08
353 0.649995 0.549999 0.750001 -7299.08
354 0.749995 0.449999 0.750001 -7299.08
355 0.749995 0.549999 0.650001 -7299.08
356 0.649995 0.449999 0.850001 -7299.08
357 0.649984 0.549997 0.950014 -7299.08
358 0.749995 0.449999 0.950005 -7299.08
359 0.749995 0.549999 0.850001 -7299.08
360 0.649986 0.649999 0.0499918 -7299.08
361 0.649995 0.749999 0.150001 -7299.08
362 0.749995 0.649999 0.150001 -7299.08
363 0.749995 0.749999 0.0500006 -7299.08
364 0.649995 0.649999 0.250001 -7299.08
365 0.649995 0.75 0.350001 -7299.08
366 0.749996 0.649999 0.350001 -7299.08
367 0.749996 0.749999 0.250001 -7299.08
368 0.649995 0.649999 0.450001 -7299.08
369 0.649995 0.749999 0.550001 -7299.08
370 0.749996 0.649999 0.550001 -7299.08
371 0.749996 0.749999 0.450001 -7299.08
372 0.649995 0.649999 0.650001 -7299.08
373 0.649995 0.75 0.750001 -7299.08
374 0.749996 0.649999 0.750001 -7299.08
375 0.749996 0.749999 0.650001 -7299.08
376 0.649995 0.649999 0.850001 -7299.08
377 0.649982 0.749999 0.950014 -7299.08
378 0.749995 0.649995 0.950005 -7299.08
379 0.749995 0.749999 0.850001 -7299.08
380 0.649986 0.849999 0.0499918 -7299.08
381 0.649984 0.950019 0.15001 -7299.08
382 0.749995 0.850001 0.150001 -7299.08
383 0.749993 0.950009 0.0499937 -7299.08
384 0.649995 0.850001 0.250001 -7299.08
385 0.649984 0.95002 0.349992 -7299.08
386 0.749995 0.850001 0.350001 -7299.08
387 0.749995 0.95001 0.249991 -7299.08
388 0.649995 0.850001 0.450001 -7299.08
389 0.649984 0.95002 0.549992 -7299.08
390 0.749995 0.850001 0.550001 -7299.08
391 0.749995 0.95001 0.45001 -7299.08
392 0.649995 0.850002 0.650001 -7299.08
393 0.649984 0.95002 0.75001 -7299.08
394 0.749996 0.850002 0.750001 -7299.08
395 0.749996 0.95001 0.649991 -7299.08
396 0.649996 0.850002 0.850001 -7299.08
397 0.649986 0.950021 0.950012 -7299.08
398 0.749996 0.849997 0.950005 -7299.08
399 0.749996 0.950011 0.849991 -7299.08
400 0.849992 0.0500008 0.0499917 -7299.08
401 0.850002 0.150001 0.150001 -7299.08
402 0.950041 0.0499648 0.150009 -7299.08
403 0.950041 0.149999 0.0499577 -7299.08
404 0.85 0.0499987 0.250001 -7299.08
405 0.850002 0.150001 0.350001 -7299.08
406 0.950041 0.0499646 0.349992 -7299.08
407 0.950042 0.15 0.249955 -7299.08
408 0.85 0.0499984 0.450001 -7299.08
409 0.850003 0.15 0.550001 -7299.08
410 0.950041 0.0499644 0.549992 -7299.08
411 0.950042 0.15 0.450045 -7299.08
412 0.85 0.0499982 0.650001 -7299.08
413 0.850003 0.15 0.750001 -7299.08
414 0.950041 0.0499642 0.750009 -7299.08
415 0.950042 0.150043 0.649998 -7299.08
416 0.850001 0.0499981 0.850001 -7299.08
417 0.849988 0.15 0.950014 -7299.08
418 0.950043 0.0499641 0.950012 -7299.08
419 0.950042 0.15 0.849955 -7299.08
420 0.849992 0.25 0.0499916 -7299.08
421 0.850003 0.35 0.150001 -7299.08
422 0.950043 0.249953 0.150001 -7299.08
423 0.950042 0.349998 0.0499575 -7299.08
424 0.850003 0.25 0.250001 -7299.08
425 0.850003 0.35 0.350001 -7299.08
426 0.950044 0.249953 0.350001 -7299.08
427 0.950042 0.35 0.249955 -7299.08
428 0.850003 0.25 0.45 -7299.08
429 0.850003 0.35 0.55 -7299.08
430 0.950044 0.249953 0.55 -7299.08
431 0.950042 0.349954 0.45 -7299.08
432 0.850004 0.249999 0.65 -7299.08
433 0.850004 0.349999 0.75 -7299.08
434 0.950044 0.249997 0.750045 -7299.08
435 0.950043 0.349954 0.65 -7299.08
436 0.850004 0.249999 0.850001 -7299.08
437 0.849989 0.349999 0.950013 -7299.08
438 0.950044 0.249999 0.950048 -7299.08
439 0.950043 0.349999 0.849955 -7299.08
440 0.849993 0.449999 0.0499914 -7299.08
441 0.850004 0.549999 0.150001 -7299.08
442 0.950045 0.450042 0.150001 -7299.08
443 0.950043 0.549998 0.0499574 -7299.08
444 0.850004 0.449999 0.25 -7299.08
445 0.850004 0.549999 0.35 -7299.08
446 0.950045 0.449997 0.349955 -7299.08
447 0.950043 0.549999 0.249955 -7299.08
448 0.850004 0.449999 0.45 -7299.08
449 0.850004 0.549999 0.55 -7299.08
450 0.950045 0.449997 0.549955 -7299.08
451 0.950043 0.549954 0.45 -7299.08
452 0.850005 0.449999 0.65 -7299.08
453 0.850005 0.549999 0.75 -7299.08
454 0.950045 0.449997 0.750045 -7299.08
455 0.950044 0.549954 0.65 -7299.08
456 0.850005 0.449999 0.85 -7299.08
457 0.84999 0.549999 0.950013 -7299.08
458 0.950045 0.449999 0.950047 -7299.08
459 0.950044 0.549999 0.849955 -7299.08
460 0.849994 0.649999 0.0499911 -7299.08
461 0.850005 0.749999 0.15 -7299.08
462 0.950046 0.649997 0.150045 -7299.08
463 0.950044 0.749997 0.0499572 -7299.08
464 0.850005 0.649999 0.25 -7299.08
465 0.850005 0.749999 0.35 -7299.08
466 0.950046 0.649997 0.349955 -7299.08
467 0.950044 0.750042 0.249997 -7299.08
468 0.850005 0.649999 0.45 -7299.08
469 0.850005 0.749999 0.55 -7299.08
470 0.950046 0.649997 0.549955 -7299.08
471 0.950045 0.750042 0.450002 -7299.08
472 0.850006 0.649999 0.65 -7299.08
473 0.850006 0.75 0.75 -7299.08
474 0.950046 0.649997 0.750045 -7299.08
475 0.950045 0.750042 0.649998 -7299.08
476 0.850006 0.649999 0.85 -7299.08
477 0.849991 0.75 0.950013 -7299.08
478 0.950046 0.649999 0.950047 -7299.08
479 0.950045 0.75 0.849955 -7299.08
480 0.849995 0.85 0.049991 -7299.08
481 0.849983 0.95002 0.15 -7299.08
482 0.950047 0.849953 0.15 -7299.08
483 0.950053 0.95001 0.0499569 -7299.08
484 0.850006 0.85 0.25 -7299.08
485 0.849983 0.95002 0.35 -7299.08
486 0.950047 0.849953 0.35 -7299.08
487 0.950054 0.950054 0.25 -7299.08
488 0.850006 0.85 0.45 -7299.08
489 0.849983 0.95002 0.55 -7299.08
490 0.950047 0.849953 0.55 -7299.08
491 0.950054 0.950054 0.45 -7299.08
492 0.850006 0.85 0.65 -7299.08
493 0.849984 0.95002 0.75 -7299.08
494 0.950047 0.849953 0.75 -7299.08
495 0.950054 0.950054 0.65 -7299.08
496 0.850006 0.85 0.85 -7299.08
497 0.849984 0.95002 0.95 -7299.08
498 0.950047 0.849953 0.95 -7299.08
499 0.950054 0.950054 0.85 -7299.08
ITEM: TIMESTEP
0.0001
ITEM: NUMBER OF ATOMS
500
ITEM: BOX BOUNDS pp pp pp
0 1
0 1
0 1
ITEM: ATOMS id x y z E
0 0.0499993 0.0499993 0.0499993 -7296.86
1 0.0499986 0.15 0.15 -7296.86
2 0.149999 0.0499989 0.15 -7296.86
3 0.149999 0.149999 0.0499992 -7296.86
4 0.0499986 0.0499986 0.249999 -7296.86
5 0.049998 0.149999 0.349999 -7296.86
6 0.149998 0.0499982 0.349999 -7296.86
7 0.149998 0.149998 0.249999 -7296.86
8 0.0499977 0.0499978 0.45 -7296.86
9 0.0499971 0.149998 0.549999 -7296.86
10 0.149997 0.0499972 0.549999 -7296.86
11 0.149997 0.149997 0.449999 -7296.86
12 0.0499966 0.0499966 0.65 -7296.86
13 0.049996 0.149997 0.75 -7296.86
14 0.149996 0.0499963 0.75 -7296.86
15 0.149996 0.149996 0.65 -7296.86
16 0.049996 0.049996 0.85 -7296.86
17 0.0499956 0.149991 0.950005 -7296.86
18 0.14999 0.0499956 0.950007 -7296.86
19 0.149996 0.149996 0.850002 -7296.86
20 0.0499953 0.249995 0.0499994 -7296.86
21 0.0499946 0.349996 0.150001 -7296.86
22 0.149995 0.249996 0.15 -7296.86
23 0.149995 0.349996 0.0499999 -7296.86
24 0.0499949 0.249996 0.25 -7296.86
25 0.0499943 0.349997 0.35 -7296.86
26 0.149994 0.249997 0.35 -7296.86
27 0.149994 0.349997 0.25 -7296.86
28 0.0499942 0.249997 0.45 -7296.86
29 0.0499936 0.349997 0.55 -7296.86
30 0.149994 0.249997 0.55 -7296.86
31 0.149994 0.349997 0.45 -7296.86
32 0.0499935 0.249997 0.65 -7296.86
33 0.0499929 0.349997 0.75 -7296.86
34 0.149993 0.249997 0.75 -7296.86
35 0.149993 0.349997 0.65 -7296.86
36 0.0499929 0.249997 0.85 -7296.86
37 0.0499926 0.349992 0.950006 -7296.86
38 0.149993 0.249986 0.950012 -7296.86
39 0.149993 0.349997 0.850002 -7296.86
40 0.0499926 0.449996 0.0499994 -7296.86
41 0.049992 0.549996 0.150001 -7296.86
42 0.149992 0.449996 0.15 -7296.86
43 0.149992 0.549996 0.0499998 -7296.86
44 0.0499922 0.449996 0.25 -7296.86
45 0.0499916 0.549996 0.35 -7296.86
46 0.149992 0.449996 0.35 -7296.86
47 0.149992 0.549996 0.25 -7296.86
48 0.0499916 0.449996 0.45 -7296.86
49 0.049991 0.549997 0.550001 -7296.86
50 0.149991 0.449997 0.550001 -7296.86
51 0.149991 0.549997 0.450001 -7296.86
52 0.0499909 0.449997 0.650001 -7296.86
53 0.0499902 0.549997 0.750001 -7296.86
54 0.14999 0.449997 0.750001 -7296.86
55 0.14999 0.549997 0.650001 -7296.86
56 0.0499903 0.449997 0.850001 -7296.86
57 0.0499899 0.549992 0.950007 -7296.86
58 0.149988 0.449994 0.950013 -7296.86
59 0.14999 0.549997 0.850003 -7296.86
60 0.0499897 0.649996 0.0500002 -7296.86
61 0.0499891 0.749998 0.150001 -7296.86
62 0.149989 0.649997 0.150001 -7296.86
63 0.149989 0.749998 0.0500008 -7296.86
64 0.0499894 0.649997 0.250001 -7296.86
65 0.0499887 0.749998 0.350001 -7296.86
66 0.149989 0.649998 0.350001 -7296.86
67 0.149989 0.749998 0.250001 -7296.86
68 0.0499887 0.649997 0.450001 -7296.86
69 0.049988 0.749998 0.550001 -7296.86
70 0.149988 0.649998 0.550001 -7296.86
71 0.149988 0.749998 0.450001 -7296.86
72 0.049988 0.649998 0.650001 -7296.86
73 0.0499874 0.749998 0.750001 -7296.86
74 0.149987 0.649998 0.750001 -7296.86
75 0.149987 0.749998 0.650001 -7296.86
76 0.0499874 0.649997 0.850002 -7296.86
77 0.0499871 0.749992 0.950007 -7296.86
78 0.149987 0.649987 0.950013 -7296.86
79 0.149987 0.749997 0.850003 -7296.86
80 0.0499873 0.849999 0.0500015 -7296.86
81 0.0499875 0.950022 0.150025 -7296.86
82 0.149987 0.850001 0.150003 -7296.86
83 0.149982 0.950023 0.0499834 -7296.86
84 0.0499873 0.850001 0.250002 -7296.86
85 0.0499873 0.950022 0.349978 -7296.86
86 0.149987 0.850002 0.350002 -7296.86
87 0.149988 0.950024 0.249976 -7296.86
88 0.0499875 0.850002 0.450002 -7296.86
89 0.0499875 0.950023 0.549977 -7296.86
90 0.149987 0.850003 0.550001 -7296.86
91 0.149988 0.950025 0.450025 -7296.86
92 0.0499878 0.850003 0.650001 -7296.86
93 0.0499879 0.950024 0.750024 -7296.86
94 0.149988 0.850004 0.750002 -7296.86
95 0.149988 0.950026 0.649976 -7296.86
96 0.049988 0.850004 0.850002 -7296.86
97 0.049988 0.950031 0.950031 -7296.86
98 0.149988 0.849993 0.950014 -7296.86
99 0.149988 0.950028 0.849978 -7296.86
100 0.249964 0.0500018 0.0499773 -7296.86
101 0.249988 0.150001 0.150001 -7296.86
102 0.349989 0.050001 0.150002 -7296.86
103 0.349988 0.150002 0.050001 -7296.86
104 0.249984 0.0499959 0.250001 -7296.86
105 0.249989 0.150001 0.350001 -7296.86
106 0.349989 0.0500003 0.350002 -7296.86
107 0.349989 0.15 0.250002 -7296.86
108 0.249984 0.0499949 0.450001 -7296.86
109 0.249989 0.15 0.550001 -7296.86
110 0.349989 0.0499993 0.550002 -7296.86
111 0.349989 0.149999 0.450002 -7296.86
112 0.249984 0.049994 0.650001 -7296.86
113 0.249989 0.149999 0.750002 -7296.86
114 0.349989 0.0499984 0.750002 -7296.86
115 0.34999 0.149998 0.650002 -7296.86
116 0.249984 0.0499933 0.850002 -7296.86
117 0.249955 0.149998 0.950036 -7296.86
118 0.349983 0.0499981 0.950009 -7296.86
119 0.349989 0.149998 0.850004 -7296.86
120 0.249964 0.249998 0.0499779 -7296.86
121 0.249988 0.349998 0.150002 -7296.86
122 0.349988 0.249998 0.150002 -7296.86
123 0.349988 0.349998 0.0500014 -7296.86
124 0.249989 0.249998 0.250002 -7296.86
125 0.249989 0.349998 0.350002 -7296.86
126 0.349989 0.249998 0.350002 -7296.86
127 0.349989 0.349998 0.250002 -7296.86
128 0.249989 0.249998 0.450002 -7296.86
129 0.249989 0.349998 0.550002 -7296.86
130 0.349989 0.249998 0.550002 -7296.86
131 0.349989 0.349998 0.450002 -7296.86
132 0.249989 0.249998 0.650002 -7296.86
133 0.249989 0.349998 0.750002 -7296.86
134 0.349989 0.249998 0.750002 -7296.86
135 0.349989 0.349998 0.650002 -7296.86
136 0.249988 0.249998 0.850004 -7296.86
137 0.249955 0.349998 0.950036 -7296.86
138 0.349988 0.249987 0.950014 -7296.86
139 0.349989 0.349998 0.850004 -7296.86
140 0.249964 0.449997 0.0499779 -7296.86
141 0.249989 0.549997 0.150002 -7296.86
142 0.349989 0.449997 0.150002 -7296.86
143 0.349988 0.549998 0.0500015 -7296.86
144 0.249989 0.449998 0.250002 -7296.86
145 0.249989 0.549998 0.350002 -7296.86
146 0.349989 0.449998 0.350002 -7296.86
147 0.349989 0.549998 0.250002 -7296.86
148 0.249989 0.449998 0.450002 -7296.86
149 0.249989 0.549998 0.550002 -7296.86
150 0.349989 0.449998 0.550002 -7296.86
151 0.349989 0.549998 0.450002 -7296.86
152 0.249989 0.449998 0.650002 -7296.86
153 0.249989 0.549998 0.750002 -7296.86
154 0.349989 0.449998 0.750002 -7296.86
155 0.349989 0.549998 0.650002 -7296.86
156 0.249989 0.449997 0.850004 -7296.86
157 0.249955 0.549998 0.950036 -7296.86
158 0.349983 0.449993 0.950014 -7296.86
159 0.349989 0.549998 0.850004 -7296.86
160 0.249964 0.649997 0.0499779 -7296.86
161 0.249988 0.749998 0.150002 -7296.86
162 0.349989 0.649998 0.150002 -7296.86
163 0.349988 0.749998 0.0500014 -7296.86
164 0.249989 0.649998 0.250002 -7296.86
165 0.249989 0.749998 0.350002 -7296.86
166 0.349989 0.649998 0.350002 -7296.86
167 0.349989 0.749998 0.250002 -7296.86
168 0.249989 0.649998 0.450002 -7296.86
169 0.249989 0.749998 0.550002 -7296.86
170 0.349989 0.649998 0.550002 -7296.86
171 0.349989 0.749998 0.450002 -7296.86
172 0.249989 0.649998 0.650002 -7296.86
173 0.249989 0.749998 0.750002 -7296.86
174 0.349989 0.649998 0.750002 -7296.86
175 0.349989 0.749998 0.650002 -7296.86
176 0.249989 0.649997 0.850004 -7296.86
177 0.249955 0.749998 0.950036 -7296.86
178 0.349982 0.649993 0.950014 -7296.86
179 0.349988 0.749998 0.850004 -7296.86
180 0.249964 0.849998 0.0499778 -7296.86
181 0.249935 0.950052 0.150003 -7296.86
182 0.349988 0.850002 0.150002 -7296.86
183 0.349982 0.950024 0.0499826 -7296.86
184 0.249988 0.850003 0.250002 -7296.86
185 0.249935 0.950052 0.350002 -7296.86
186 0.349988 0.850003 0.350002 -7296.86
187 0.349987 0.950025 0.249976 -7296.86
188 0.249988 0.850004 0.450002 -7296.86
189 0.249935 0.950053 0.550002 -7296.86
190 0.349988 0.850004 0.550002 -7296.86
191 0.349962 0.950026 0.450002 -7296.86
192 0.249988 0.850005 0.650002 -7296.86
193 0.249949 0.950054 0.750016 -7296.86
194 0.349988 0.850005 0.750002 -7296.86
195 0.349962 0.950027 0.650001 -7296.86
196 0.249988 0.850006 0.850002 -7296.86
197 0.249963 0.950055 0.950031 -7296.86
198 0.349988 0.849993 0.950014 -7296.86
199 0.349988 0.950028 0.849977 -7296.86
200 0.449964 0.0500019 0.0499773 -7296.86
201 0.449988 0.150002 0.150001 -7296.86
202 0.549988 0.0500012 0.150002 -7296.86
203 0.549987 0.150001 0.050001 -7296.86
204 0.449983 0.049996 0.250002 -7296.86
205 0.449988 0.150001 0.350002 -7296.86
206 0.549988 0.0500004 0.350002 -7296.86
207 0.549988 0.15 0.250002 -7296.86
208 0.449983 0.049995 0.450002 -7296.86
209 0.449988 0.15 0.550002 -7296.86
210 0.549988 0.0499994 0.550002 -7296.86
211 0.549988 0.149999 0.450002 -7296.86
212 0.449983 0.049994 0.650002 -7296.86
213 0.449988 0.149999 0.750002 -7296.86
214 0.549988 0.0499984 0.750002 -7296.86
215 0.549988 0.149999 0.650002 -7296.86
216 0.449982 0.0499934 0.850003 -7296.86
217 0.449961 0.149996 0.950036 -7296.86
218 0.549982 0.0499983 0.950009 -7296.86
219 0.549988 0.149998 0.850004 -7296.86
220 0.449964 0.249997 0.0499782 -7296.86
221 0.449987 0.349998 0.150002 -7296.86
222 0.549987 0.249998 0.150003 -7296.86
223 0.549987 0.349998 0.0500018 -7296.86
224 0.449988 0.249998 0.250002 -7296.86
225 0.449988 0.349998 0.350002 -7296.86
226 0.549988 0.249998 0.350002 -7296.86
227 0.549988 0.349998 0.250002 -7296.86
228 0.449988 0.249998 0.450002 -7296.86
229 0.449988 0.349998 0.550002 -7296.86
230 0.549988 0.249998 0.550002 -7296.86
231 0.549988 0.349998 0.450002 -7296.86
232 0.449988 0.249998 0.650002 -7296.86
233 0.449988 0.349998 0.750002 -7296.86
234 0.549988 0.249998 0.750002 -7296.86
235 0.549988 0.349998 0.650002 -7296.86
236 0.449987 0.249998 0.850004 -7296.86
237 0.449957 0.349995 0.950037 -7296.86
238 0.549987 0.249987 0.950014 -7296.86
239 0.549988 0.349998 0.850004 -7296.86
240 0.449963 0.449998 0.0499782 -7296.86
241 0.449987 0.549998 0.150002 -7296.86
242 0.549988 0.449998 0.150003 -7296.86
243 0.549987 0.549998 0.0500018 -7296.86
244 0.449988 0.449998 0.250002 -7296.86
245 0.449988 0.549998 0.350002 -7296.86
246 0.549988 0.449998 0.350002 -7296.86
247 0.549988 0.549998 0.250002 -7296.86
248 0.449988 0.449998 0.450002 -7296.86
249 0.449988 0.549998 0.550002 -7296.86
250 0.549988 0.449998 0.550002 -7296.86
251 0.549988 0.549998 0.450002 -7296.86
252 0.449988 0.449998 0.650002 -7296.86
253 0.449988 0.549998 0.750003 -7296.86
254 0.549988 0.449998 0.750002 -7296.86
255 0.549988 0.549998 0.650002 -7296.86
256 0.449988 0.449998 0.850004 -7296.86
257 0.449957 0.549995 0.950037 -7296.86
258 0.549984 0.449991 0.950014 -7296.86
259 0.549988 0.549998 0.850004 -7296.86
260 0.449964 0.649997 0.0499782 -7296.86
261 0.449988 0.749998 0.150002 -7296.86
262 0.549988 0.649998 0.150003 -7296.86