ITEM: TIMESTEP
0
ITEM: NUMBER OF ATOMS
64
ITEM: BOX BOUNDS pp pp pp
0 100
0 100
0 100
ITEM: ATOMS id x y z E
0 12.5 12.5 12.5 0
1 37.5 12.5 12.5 0
2 62.5 12.5 12.5 0
3 87.5 12.5 12.5 0
4 12.5 37.5 12.5 0
5 37.5 37.5 12.5 0
6 62.5 37.5 12.5 0
7 87.5 37.5 12.5 0
8 12.5 62.5 12.5 0
9 37.5 62.5 12.5 0
10 62.5 62.5 12.5 0
11 87.5 62.5 12.5 0
12 12.5 87.5 12.5 0
13 37.5 87.5 12.5 0
14 62.5 87.5 12.5 0
15 87.5 87.5 12.5 0
16 12.5 12.5 37.5 0
17 37.5 12.5 37.5 0
18 62.5 12.5 37.5 0
19 87.5 12.5 37.5 0
20 12.5 37.5 37.5 0
21 37.5 37.5 37.5 0
22 62.5 37.5 37.5 0
23 87.5 37.5 37.5 0
24 12.5 62.5 37.5 0
25 37.5 62.5 37.5 0
26 62.5 62.5 37.5 0
27 87.5 62.5 37.5 0
28 12.5 87.5 37.5 0
29 37.5 87.5 37.5 0
30 62.5 87.5 37.5 0
31 87.5 87.5 37.5 0
32 12.5 12.5 62.5 0
33 37.5 12.5 62.5 0
34 62.5 12.5 62.5 0
35 87.5 12.5 62.5 0
36 12.5 37.5 62.5 0
37 37.5 37.5 62.5 0
38 62.5 37.5 62.5 0
39 87.5 37.5 62.5 0
40 12.5 62.5 62.5 0
41 37.5 62.5 62.5 0
42 62.5 62.5 62.5 0
43 87.5 62.5 62.5 0
44 12.5 87.5 62.5 0
45 37.5 87.5 62.5 0
46 62.5 87.5 62.5 0
47 87.5 87.5 62.5 0
48 12.5 12.5 87.5 0
49 37.5 12.5 87.5 0
50 62.5 12.5 87.5 0
51 87.5 12.5 87.5 0
52 12.5 37.5 87.5 0
53 37.5 37.5 87.5 0
54 62.5 37.5 87.5 0
55 87.5 37.5 87.5 0
56 12.5 62.5 87.5 0
57 37.5 62.5 87.5 0
58 62.5 62.5 87.5 0
59 87.5 62.5 87.5 0
60 12.5 87.5 87.5 0
61 37.5 87.5 87.5 0
62 62.5 87.5 87.5 0
63 87.5 87.5 87.5 0
ITEM: TIMESTEP
0
ITEM: NUMBER OF ATOMS
64
ITEM: BOX BOUNDS pp pp pp
0 100
0 100
0 100
ITEM: ATOMS id x y z E
0 12.5093 12.5522 12.4801 2476.94
1 37.5935 12.4951 12.5025 2476.94
2 62.5084 12.6252 12.4722 2476.94
3 87.4924 12.5098 12.3918 2476.94
4 12.4634 37.5576 12.5134 2476.94
5 37.5244 37.384 12.4806 2476.94
6 62.4271 37.6545 12.5757 2476.94
7 87.5343 37.4825 12.515 2476.94
8 12.522 62.5904 12.5036 2476.94
9 37.4336 62.4699 12.5182 2476.94
10 62.4535 62.5366 12.5656 2476.94
11 87.5107 62.4691 12.4954 2476.94
12 12.4644 87.4756 12.5378 2476.94
13 37.4287 87.5229 12.5505 2476.94
14 62.471 87.4802 12.5887 2476.94
15 87.5267 87.5305 12.5298 2476.94
16 12.4362 12.4821 37.4783 2476.94
17 37.4474 12.5395 37.5275 2476.94
18 62.5969 12.5343 37.4626 2476.94
19 87.4519 12.4827 37.5423 2476.94
20 12.4623 37.5084 37.5019 2476.94
21 37.5278 37.5301 37.569 2476.94
22 62.4817 37.529 37.5092 2476.94
23 87.6045 37.4748 37.5206 2476.94
24 12.4809 62.608 37.5408 2476.94
25 37.5053 62.5141 37.5469 2476.94
26 62.5717 62.4664 37.4905 2476.94
27 87.487 62.5004 37.5244 2476.94
28 12.4001 87.5542 37.6099 2476.94
29 37.5893 87.5565 37.5698 2476.94
30 62.5458 87.5954 37.5088 2476.94
31 87.5389 87.5122 37.5027 2476.94
32 12.4934 12.3775 62.4866 2476.94
33 37.5397 12.4212 62.5191 2476.94
34 62.5721 12.4701 62.4413 2476.94
35 87.5031 12.5004 62.508 2476.94
36 12.5596 37.5111 62.5599 2476.94
37 37.5671 37.4706 62.5267 2476.94
38 62.3951 37.4599 62.4905 2476.94
39 87.4428 37.5427 62.4474 2476.94
40 12.5463 62.4786 62.4432 2476.94
41 37.569 62.5755 62.4954 2476.94
42 62.5675 62.5332 62.5572 2476.94
43 87.4245 62.5092 62.4138 2476.94
44 12.5434 87.5587 62.487 2476.94
45 37.4565 87.545 62.5206 2476.94
46 62.4954 87.4329 62.5099 2476.94
47 87.4466 87.5099 62.4176 2476.94
48 12.4741 12.463 87.4786 2476.94
49 37.5488 12.5028 87.4985 2476.94
50 62.6343 12.5035 87.5763 2476.94
51 87.458 12.4916 87.4969 2476.94
52 12.5421 37.5359 87.5839 2476.94
53 37.5767 37.4153 87.4908 2476.94
54 62.4649 37.5141 87.5534 2476.94
55 87.5023 37.4172 87.6335 2476.94
56 12.4887 62.5172 87.5557 2476.94
57 37.442 62.5313 87.5923 2476.94
58 62.5774 62.5065 87.5786 2476.94
59 87.5046 62.587 87.5313 2476.94
60 12.5047 87.5793 87.5725 2476.94
61 37.4397 87.5679 87.4138 2476.94
62 62.5164 87.471 87.4718 2476.94
63 87.429 87.5435 87.516 2476.94
ITEM: TIMESTEP
0.0001
ITEM: NUMBER OF ATOMS
64
ITEM: BOX BOUNDS pp pp pp
0 100
0 100
0 100
ITEM: ATOMS id x y z E
0 12.5185 12.6043 12.4601 2476.94
1 37.6869 12.4903 12.505 2476.94
2 62.5168 12.7504 12.4445 2476.94
3 87.4847 12.5196 12.2835 2476.94
4 12.4268 37.6152 12.5269 2476.94
5 37.5488 37.2681 12.4613 2476.94
6 62.3543 37.809 12.6514 2476.94
7 87.5687 37.4649 12.5299 2476.94
8 12.5439 62.6808 12.5072 2476.94
9 37.3672 62.4397 12.5364 2476.94
10 62.4069 62.5732 12.6312 2476.94
11 87.5214 62.4382 12.4908 2476.94
12 12.4289 87.4512 12.5755 2476.94
13 37.3573 87.5458 12.6011 2476.94
14 62.442 87.4603 12.6774 2476.94
15 87.5534 87.561 12.5595 2476.94
16 12.3724 12.4641 37.4565 2476.94
17 37.3947 12.579 37.5549 2476.94
18 62.6938 12.5687 37.4252 2476.94
19 87.4039 12.4655 37.5847 2476.94
20 12.4247 37.5168 37.5038 2476.94
21 37.5557 37.5603 37.6381 2476.94
22 62.4634 37.558 37.5183 2476.94
23 87.709 37.4496 37.5412 2476.94
24 12.4619 62.7159 37.5816 2476.94
25 37.5107 62.5282 37.5938 2476.94
26 62.6434 62.4329 37.4809 2476.94
27 87.4741 62.5008 37.5488 2476.94
28 12.3001 87.6083 37.7197 2476.94
29 37.6785 87.6129 37.6396 2476.94
30 62.5916 87.6907 37.5175 2476.94
31 87.5778 87.5244 37.5053 2476.94
32 12.4868 12.2549 62.4733 2476.94
33 37.5793 12.3425 62.5381 2476.94
34 62.6442 12.4403 62.3825 2476.94
35 87.5061 12.5008 62.516 2476.94
36 12.6192 37.5221 62.6198 2476.94
37 37.6343 37.4413 62.5534 2476.94
38 62.2902 37.4199 62.4809 2476.94
39 87.3856 37.5854 62.3947 2476.94
40 12.5925 62.4573 62.3863 2476.94
41 37.6381 62.6511 62.4908 2476.94
42 62.635 62.5664 62.6144 2476.94
43 87.3489 62.5183 62.3276 2476.94
44 12.5868 87.6175 62.4741 2476.94
45 37.413 87.59 62.5412 2476.94
46 62.4908 87.3657 62.5198 2476.94
47 87.3932 87.5198 62.3352 2476.94
48 12.4481 12.426 87.4573 2476.94
49 37.5977 12.5055 87.4969 2476.94
50 62.7686 12.5071 87.6526 2476.94
51 87.4161 12.4832 87.4939 2476.94
52 12.5841 37.5717 87.6678 2476.94
53 37.6534 37.3306 87.4817 2476.94
54 62.4298 37.5282 87.6068 2476.94
55 87.5046 37.3344 87.767 2476.94
56 12.4775 62.5343 87.6114 2476.94
57 37.384 62.5626 87.6846 2476.94
58 62.6549 62.513 87.6572 2476.94
59 87.5092 62.674 87.5626 2476.94
60 12.5093 87.6587 87.645 2476.94
61 37.3795 87.6358 87.3276 2476.94
62 62.5328 87.442 87.4435 2476.94
63 87.3581 87.587 87.532 2476.94
ITEM: TIMESTEP
0.0002
ITEM: NUMBER OF ATOMS
64
ITEM: BOX BOUNDS pp pp pp
0 100
0 100
0 100
ITEM: ATOMS id x y z E
0 12.5278 12.6565 12.4402 2476.94
1 37.7804 12.4854 12.5074 2476.94
2 62.5252 12.8757 12.4167 2476.94
3 87.4771 12.5295 12.1753 2476.94
4 12.3901 37.6728 12.5403 2476.94
5 37.5732 37.1521 12.4419 2476.94
6 62.2814 37.9635 12.7272 2476.94
7 87.603 37.4474 12.5449 2476.94
8 12.5659 62.7712 12.5109 2476.94
9 37.3009 62.4096 12.5546 2476.94
10 62.3604 62.6099 12.6968 2476.94
11 87.532 62.4073 12.4863 2476.94
12 12.3933 87.4268 12.6133 2476.94
13 37.286 87.5687 12.6516 2476.94
14 62.413 87.4405 12.7661 2476.94
15 87.5801 87.5916 12.5893 2476.94
16 12.3086 12.4462 37.4348 2476.94
17 37.3421 12.6184 37.5824 2476.94
18 62.7907 12.603 37.3878 2476.94
19 87.3558 12.4482 37.627 2476.94
20 12.387 37.5252 37.5057 2476.94
21 37.5835 37.5904 37.7071 2476.94
22 62.4451 37.587 37.5275 2476.94
23 87.8136 37.4245 37.5618 2476.94
24 12.4428 62.8239 37.6225 2476.94
25 37.516 62.5423 37.6408 2476.94
26 62.7151 62.3993 37.4714 2476.94
27 87.4611 62.5011 37.5732 2476.94
28 12.2003 87.6625 37.8296 2476.94
29 37.7678 87.6694 37.7094 2476.94
30 62.6373 87.7861 37.5263 2476.94
31 87.6167 87.5366 37.508 2476.94
32 12.4803 12.1324 62.4599 2476.94
33 37.619 12.2637 62.5572 2476.94
34 62.7163 12.4104 62.3238 2476.94
35 87.5092 12.5011 62.524 2476.94
36 12.6788 37.5332 62.6797 2476.94
37 37.7014 37.4119 62.5801 2476.94
38 62.1853 37.3798 62.4714 2476.94
39 87.3283 37.6282 62.3421 2476.94
40 12.6388 62.4359 62.3295 2476.94
41 37.7071 62.7266 62.4863 2476.94
42 62.7026 62.5996 62.6717 2476.94
43 87.2734 62.5275 62.2414 2476.94
44 12.6302 87.6762 62.4611 2476.94
45 37.3695 87.635 62.5618 2476.94
46 62.4863 87.2986 62.5298 2476.94
47 87.3398 87.5298 62.2528 2476.94
48 12.4222 12.3891 87.4359 2476.94
49 37.6465 12.5083 87.4954 2476.94
50 62.9028 12.5106 87.7289 2476.94
51 87.3741 12.4748 87.4908 2476.94
52 12.6262 37.6076 87.7518 2476.94
53 37.73 37.2459 87.4725 2476.94
54 62.3947 37.5423 87.6602 2476.94
55 87.5069 37.2517 87.9005 2476.94
56 12.4662 62.5515 87.6671 2476.94
57 37.326 62.5938 87.7769 2476.94
58 62.7323 62.5195 87.7357 2476.94
59 87.5137 62.7609 87.5938 2476.94
60 12.514 87.738 87.7174 2476.94
61 37.3192 87.7037 87.2414 2476.94
62 62.5492 87.413 87.4153 2476.94
63 87.2871 87.6305 87.5481 2476.94
ITEM: TIMESTEP
0.0003
ITEM: NUMBER OF ATOMS
64
ITEM: BOX BOUNDS pp pp pp
0 100
0 100
0 100
ITEM: ATOMS id x y z E
0 12.537 12.7087 12.4203 2476.94
1 37.8738 12.4805 12.5099 2476.94
2 62.5336 13.0009 12.389 2476.94
3 87.4695 12.5393 12.067 2476.94
4 12.3535 37.7304 12.5538 2476.94
5 37.5977 37.0361 12.4226 2476.94
6 62.2086 38.118 12.8029 2476.94
7 87.6373 37.4298 12.5599 2476.94
8 12.5878 62.8616 12.5145 2476.94
9 37.2345 62.3795 12.5729 2476.94
10 62.3138 62.6465 12.7625 2476.94
11 87.5427 62.3764 12.4817 2476.94
12 12.3577 87.4023 12.6511 2476.94
13 37.2147 87.5916 12.7022 2476.94
14 62.384 87.4207 12.8548 2476.94
15 87.6068 87.6221 12.619 2476.94
16 12.2448 12.4283 37.413 2476.94
17 37.2894 12.6579 37.6099 2476.94
18 62.8876 12.6373 37.3505 2476.94
19 87.3077 12.431 37.6694 2476.94
20 12.3493 37.5336 37.5076 2476.94
21 37.6114 37.6205 37.7762 2476.94
22 62.4268 37.616 37.5366 2476.94
23 87.9181 37.3993 37.5824 2476.94
24 12.4237 62.9318 37.6633 2476.94
25 37.5214 62.5565 37.6877 2476.94
26 62.7869 62.3657 37.4619 2476.94
27 87.4481 62.5015 37.5977 2476.94
28 12.1004 87.7167 37.9395 2476.94
29 37.8571 87.7258 37.7792 2476.94
30 62.6831 87.8815 37.5351 2476.94
31 87.6556 87.5488 37.5107 2476.94
32 12.4737 12.0098 62.4466 2476.94
33 37.6587 12.1849 62.5763 2476.94
34 62.7884 12.3806 62.265 2476.94
35 87.5122 12.5015 62.532 2476.94
36 12.7384 37.5443 62.7396 2476.94
37 37.7686 37.3825 62.6068 2476.94
38 62.0804 37.3398 62.4619 2476.94
39 87.2711 37.6709 62.2894 2476.94
40 12.685 62.4146 62.2726 2476.94
41 37.7762 62.8021 62.4817 2476.94
42 62.7701 62.6328 62.7289 2476.94
43 87.1979 62.5366 62.1552 2476.94
44 12.6736 87.735 62.4481 2476.94
45 37.326 87.6801 62.5824 2476.94
46 62.4817 87.2314 62.5397 2476.94
47 87.2864 87.5397 62.1704 2476.94
48 12.3962 12.3522 87.4146 2476.94
49 37.6953 12.5111 87.4939 2476.94
50 63.0371 12.5141 87.8052 2476.94
51 87.3322 12.4664 87.4878 2476.94
52 12.6682 37.6434 87.8357 2476.94
53 37.8067 37.1613 87.4634 2476.94
54 62.3596 37.5565 87.7136 2476.94
55 87.5092 37.1689 88.0341 2476.94
56 12.455 62.5687 87.7228 2476.94
57 37.2681 62.6251 87.8693 2476.94
58 62.8098 62.5259 87.8143 2476.94
59 87.5183 62.8479 87.6251 2476.94
60 12.5187 87.8174 87.7899 2476.94
61 37.2589 87.7716 87.1552 2476.94
62 62.5656 87.384 87.3871 2476.94
63 87.2162 87.674 87.5641 2476.94
ITEM: TIMESTEP
0.0004
ITEM: NUMBER OF ATOMS
64
ITEM: BOX BOUNDS pp pp pp
0 100
0 100
0 100
ITEM: ATOMS id x y z E
0 12.5463 12.7608 12.4003 2476.94
1 37.9673 12.4756 12.5124 2476.94
2 62.542 13.1261 12.3612 2476.94
3 87.4619 12.5491 11.9588 2476.94
4 12.3169 37.788 12.5672 2476.94
5 37.6221 36.9202 12.4032 2476.94
6 62.1357 38.2725 12.8786 2476.94
7 87.6717 37.4123 12.5749 2476.94
8 12.6097 62.952 12.5181 2476.94
9 37.1681 62.3493 12.5911 2476.94
10 62.2673 62.6831 12.8281 2476.94
11 87.5534 62.3455 12.4772 2476.94
12 12.3221 87.3779 12.6888 2476.94
13 37.1433 87.6144 12.7527 2476.94
14 62.355 87.4008 12.9435 2476.94
15 87.6335 87.6526 12.6488 2476.94
16 12.181 12.4104 37.3913 2476.94
17 37.2368 12.6974 37.6373 2476.94
18 62.9845 12.6717 37.3131 2476.94
19 87.2597 12.4137 37.7117 2476.94
20 12.3116 37.542 37.5095 2476.94
21 37.6392 37.6507 37.8452 2476.94
22 62.4084 37.645 37.5458 2476.94
23 88.0226 37.3741 37.603 2476.94
24 12.4046 63.0398 37.7041 2476.94
25 37.5267 62.5706 37.7346 2476.94
26 62.8586 62.3325 37.4523 2476.94
27 87.4352 62.5019 37.6221 2476.94
28 12.0006 87.7708 38.0493 2476.94
29 37.9463 87.7823 37.849 2476.94
30 62.7289 87.9768 37.5439 2476.94
31 87.6945 87.561 37.5134 2476.94
32 12.4671 11.8873 62.4332 2476.94
33 37.6984 12.1061 62.5954 2476.94
34 62.8605 12.3507 62.2063 2476.94
35 87.5153 12.5019 62.5401 2476.94
36 12.798 37.5553 62.7995 2476.94
37 37.8357 37.3531 62.6335 2476.94
38 61.9755 37.2997 62.4523 2476.94
39 87.2139 37.7136 62.2368 2476.94
40 12.7313 62.3932 62.2158 2476.94
41 37.8452 62.8777 62.4771 2476.94
42 62.8376 62.6659 62.7861 2476.94
43 87.1223 62.5458 62.0689 2476.94
44 12.717 87.7937 62.4352 2476.94
45 37.2826 87.7251 62.603 2476.94
46 62.4771 87.1643 62.5496 2476.94
47 87.233 87.5496 62.088 2476.94
48 12.3703 12.3153 87.3932 2476.94
49 37.7441 12.5138 87.4924 2476.94
50 63.1714 12.5176 87.8815 2476.94
51 87.2902 12.458 87.4847 2476.94
52 12.7103 37.6793 87.9196 2476.94
53 37.8834 37.0766 87.4542 2476.94
54 62.3245 37.5706 87.767 2476.94
55 87.5114 37.0861 88.1676 2476.94
56 12.4437 62.5858 87.7785 2476.94
57 37.2101 62.6564 87.9616 2476.94
58 62.8872 62.5324 87.8929 2476.94
59 87.5229 62.9349 87.6564 2476.94
60 12.5234 87.8967 87.8624 2476.94
61 37.1986 87.8395 87.0689 2476.94
62 62.582 87.355 87.3589 2476.94
63 87.1452 87.7174 87.5801 2476.94
ITEM: TIMESTEP
0.0005
ITEM: NUMBER OF ATOMS
64
ITEM: BOX BOUNDS pp pp pp
0 100
0 100
0 100
ITEM: ATOMS id x y z E
0 12.5555 12.813 12.3804 2476.94
1 38.0608 12.4706 12.5149 2476.94
2 62.5504 13.2513 12.3335 2476.94
3 87.4542 12.5589 11.8505 2476.94
4 12.2803 37.8456 12.5807 2476.94
5 37.6465 36.8042 12.3838 2476.94
6 62.0628 38.427 12.9543 2476.94
7 87.706 37.3947 12.5898 2476.94
8 12.6317 63.0424 12.5217 2476.94
9 37.1017 62.3192 12.6093 2476.94
10 62.2208 62.7197 12.8937 2476.94
11 87.5641 62.3146 12.4727 2476.94
12 12.2866 87.3535 12.7266 2476.94
13 37.072 87.6373 12.8033 2476.94
14 62.326 87.381 13.0322 2476.94
15 87.6602 87.6831 12.6785 2476.94
16 12.1172 12.3924 37.3695 2476.94
17 37.1841 12.7369 37.6648 2476.94
18 63.0811 12.706 37.2757 2476.94
19 87.2116 12.3964 37.7541 2476.94
20 12.274 37.5504 37.5114 2476.94
21 37.6671 37.6808 37.9143 2476.94
22 62.3901 37.674 37.5549 2476.94
23 88.1271 37.3489 37.6236 2476.94
24 12.3856 63.1477 37.7449 2476.94
25 37.532 62.5847 37.7815 2476.94
26 62.9303 62.2993 37.4428 2476.94
27 87.4222 62.5023 37.6465 2476.94
28 11.9007 87.825 38.1592 2476.94
29 38.0356 87.8387 37.9189 2476.94
30 62.7747 88.0722 37.5526 2476.94
31 87.7335 87.5732 37.516 2476.94
32 12.4605 11.7649 62.4199 2476.94
33 37.738 12.0274 62.6144 2476.94
34 62.9326 12.3209 62.1475 2476.94
35 87.5183 12.5023 62.5481 2476.94
36 12.8575 37.5664 62.8593 2476.94
37 37.9028 37.3238 62.6602 2476.94
38 61.8706 37.2597 62.4428 2476.94
39 87.1567 37.7563 62.1841 2476.94
40 12.7775 62.3718 62.159 2476.94
41 37.9143 62.9532 62.4725 2476.94
42 62.9051 62.6991 62.8433 2476.94
43 87.0468 62.5549 61.9827 2476.94
44 12.7604 87.8525 62.4222 2476.94
45 37.2391 87.7701 62.6236 2476.94
46 62.4725 87.0972 62.5595 2476.94
47 87.1796 87.5595 62.0056 2476.94
48 12.3444 12.2783 87.3718 2476.94
49 37.793 12.5166 87.4908 2476.94
50 63.3057 12.5212 87.9578 2476.94
51 87.2482 12.4496 87.4817 2476.94
52 12.7523 37.7151 88.0035 2476.94
53 37.9601 36.9919 87.4451 2476.94
54 62.2894 37.5847 87.8204 2476.94
55 87.5137 37.0033 88.3011 2476.94
56 12.4325 62.603 87.8342 2476.94
57 37.1521 62.6877 88.0539 2476.94
58 62.9646 62.5389 87.9715 2476.94
59 87.5275 63.0219 87.6877 2476.94
60 12.528 87.9761 87.9349 2476.94
61 37.1384 87.9074 86.9827 2476.94
62 62.5984 87.326 87.3306 2476.94
63 87.0743 87.7609 87.5961 2476.94
ITEM: TIMESTEP
0.0006
ITEM: NUMBER OF ATOMS
64
ITEM: BOX BOUNDS pp pp pp
0 100
0 100
0 100
ITEM: ATOMS id x y z E
0 12.5648 12.8652 12.3605 2476.94
1 38.1542 12.4657 12.5174 2476.94
2 62.5587 13.3765 12.3058 2476.94
3 87.4466 12.5688 11.7423 2476.94
4 12.2437 37.9032 12.5941 2476.94
5 37.6709 36.6882 12.3645 2476.94
6 61.99 38.5815 13.0301 2476.94
7 87.7403 37.3772 12.6048 2476.94
8 12.6536 63.1329 12.5254 2476.94
9 37.0354 62.289 12.6275 2476.94
10 62.1742 62.7563 12.9593 2476.94
11 87.5748 62.2837 12.4683 2476.94
12 12.251 87.3291 12.7644 2476.94
13 37.0007 87.6602 12.8538 2476.94
14 62.2971 87.3611 13.1208 2476.94
15 87.6869 87.7136 12.7083 2476.94
16 12.0534 12.3745 37.3478 2476.94
17 37.1315 12.7764 37.6923 2476.94
18 63.1776 12.7403 37.2383 2476.94
19 87.1635 12.3792 37.7964 2476.94
20 12.2364 37.5587 37.5134 2476.94
21 37.6949 37.711 37.9833 2476.94
22 62.3718 37.7029 37.5641 2476.94
23 88.2317 37.3238 37.6442 2476.94
24 12.3665 63.2557 37.7857 2476.94
25 37.5374 62.5988 37.8284 2476.94
26 63.002 62.2661 37.4332 2476.94
27 87.4092 62.5027 37.6709 2476.94
28 11.8009 87.8792 38.269 2476.94
29 38.1248 87.8952 37.9887 2476.94
30 62.8204 88.1676 37.5614 2476.94
31 87.7724 87.5854 37.5187 2476.94
32 12.4539 11.6424 62.4065 2476.94
33 37.7777 11.9486 62.6335 2476.94
34 63.0047 12.291 62.0888 2476.94
35 87.5214 12.5027 62.5561 2476.94
36 12.917 37.5774 62.9192 2476.94
37 37.97 37.2944 62.6869 2476.94
38 61.7657 37.2196 62.4332 2476.94
39 87.0995 37.7991 62.1315 2476.94
40 12.8238 62.3505 62.1021 2476.94
41 37.9833 63.0287 62.468 2476.94
42 62.9726 62.7323 62.9005 2476.94
43 86.9713 62.5641 61.8965 2476.94
44 12.8037 87.9112 62.4092 2476.94
45 37.1956 87.8151 62.6442 2476.94
46 62.468 87.03 62.5694 2476.94
47 87.1262 87.5694 61.9232 2476.94
48 12.3184 12.2414 87.3505 2476.94
49 37.8418 12.5194 87.4893 2476.94
50 63.4399 12.5247 88.0341 2476.94
51 87.2063 12.4413 87.4786 2476.94
52 12.7944 37.751 88.0875 2476.94
53 38.0367 36.9072 87.4359 2476.94
54 62.2543 37.5988 87.8738 2476.94
55 87.516 36.9205 88.4346 2476.94
56 12.4212 62.6202 87.8899 2476.94
57 37.0941 62.719 88.1462 2476.94
58 63.0421 62.5454 88.0501 2476.94
59 87.532 63.1088 87.719 2476.94
60 12.5326 88.0554 88.0074 2476.94
61 37.0781 87.9753 86.8965 2476.94
62 62.6148 87.2971 87.3029 2476.94
63 87.0033 87.8044 87.6122 2476.94
ITEM: TIMESTEP
0.0007
ITEM: NUMBER OF ATOMS
64
ITEM: BOX BOUNDS pp pp pp
0 100
0 100
0 100
ITEM: ATOMS id x y z E
0 12.574 12.9173 12.3405 2476.94
1 38.2477 12.4607 12.5198 2476.94
2 62.5671 13.5017 12.2782 2476.94
3 87.439 12.5786 11.6341 2476.94
4 12.207 37.9608 12.6076 2476.94
5 37.6953 36.5723 12.3451 2476.94
6 61.9171 38.736 13.1058 2476.94
7 87.7747 37.3596 12.6199 2476.94
8 12.6756 63.2233 12.529 2476.94
9 36.969 62.2589 12.6457 2476.94
10 62.1277 62.7933 13.0249 2476.94
11 87.5854 62.2528 12.4638 2476.94
12 12.2154 87.3047 12.8021 2476.94
13 36.9293 87.6831 12.9044 2476.94
14 62.2681 87.3413 13.2095 2476.94
15 87.7136 87.7441 12.738 2476.94
16 11.9896 12.3566 37.326 2476.94
17 37.0789 12.8159 37.7197 2476.94
18 63.2741 12.7747 37.2009 2476.94
19 87.1155 12.3619 37.8387 2476.94
20 12.1988 37.5671 37.5153 2476.94
21 37.7228 37.7411 38.0524 2476.94
22 62.3535 37.7319 37.5732 2476.94
23 88.3362 37.2986 37.6648 2476.94
24 12.3474 63.3636 37.8265 2476.94
25 37.5427 62.6129 37.8754 2476.94
26 63.0737 62.2329 37.4237 2476.94
27 87.3962 62.5031 37.6953 2476.94
28 11.701 87.9333 38.3789 2476.94
29 38.2141 87.9517 38.0585 2476.94
30 62.8662 88.2629 37.5702 2476.94
31 87.8113 87.5977 37.5214 2476.94
32 12.4474 11.52 62.3932 2476.94
33 37.8174 11.8698 62.6526 2476.94
34 63.0768 12.2612 62.03 2476.94
35 87.5244 12.5031 62.5641 2476.94
36 12.9765 37.5885 62.9791 2476.94
37 38.0371 37.265 62.7136 2476.94
38 61.6608 37.1796 62.4237 2476.94
39 87.0422 37.8418 62.0789 2476.94
40 12.87 62.3291 62.0453 2476.94
41 38.0524 63.1042 62.4634 2476.94
42 63.0402 62.7655 62.9578 2476.94
43 86.8958 62.5732 61.8103 2476.94
44 12.8471 87.97 62.3962 2476.94
45 37.1521 87.8601 62.6648 2476.94
46 62.4634 86.9629 62.5793 2476.94
47 87.0728 87.5793 61.8408 2476.94
48 12.2925 12.2045 87.3291 2476.94
49 37.8906 12.5221 87.4878 2476.94
50 63.5742 12.5282 88.1104 2476.94
51 87.1643 12.4329 87.4756 2476.94
52 12.8365 37.7869 88.1714 2476.94
53 38.1134 36.8225 87.4268 2476.94
54 62.2192 37.6129 87.9272 2476.94
55 87.5183 36.8378 88.5681 2476.94
56 12.41 62.6373 87.9456 2476.94
57 37.0361 62.7502 88.2385 2476.94
58 63.1195 62.5519 88.1287 2476.94
59 87.5366 63.1958 87.7502 2476.94
60 12.5371 88.1341 88.0798 2476.94
61 37.0178 88.0432 86.8103 2476.94
62 62.6312 87.2681 87.2754 2476.94
63 86.9324 87.8479 87.6282 2476.94
ITEM: TIMESTEP
0.0008
ITEM: NUMBER OF ATOMS
64
ITEM: BOX BOUNDS pp pp pp
0 100
0 100
0 100
ITEM: ATOMS id x y z E
0 12.5833 12.9695 12.3206 2476.95
1 38.3411 12.4557 12.5223 2476.95
2 62.5755 13.627 12.2505 2476.95
3 87.4313 12.5884 11.5258 2476.95
4 12.1704 38.0184 12.6211 2476.95
5 37.7197 36.4563 12.3258 2476.95
6 61.8443 38.8905 13.1815 2476.95
7 87.809 37.3421 12.6349 2476.95
8 12.6975 63.3133 12.5326 2476.95
9 36.9026 62.2288 12.6639 2476.95
10 62.0811 62.8303 13.0905 2476.95
11 87.5961 62.2219 12.4593 2476.95
12 12.1799 87.2803 12.8399 2476.95
13 36.858 87.706 12.9549 2476.95
14 62.2391 87.3215 13.298 2476.95
15 87.7403 87.7747 12.7678 2476.95
16 11.9258 12.3386 37.3043 2476.95
17 37.0262 12.8553 37.7472 2476.95
18 63.3706 12.809 37.1635 2476.95
19 87.0674 12.3446 37.8811 2476.95
20 12.1612 37.5755 37.5172 2476.95
21 37.7506 37.7712 38.1214 2476.95
22 62.3352 37.7609 37.5824 2476.95
23 88.4407 37.2734 37.6854 2476.95
24 12.3283 63.4716 37.8674 2476.95
25 37.5481 62.627 37.9223 2476.95
26 63.1454 62.1997 37.4142 2476.95
27 87.3833 62.5034 37.7197 2476.95
28 11.6013 87.9875 38.4888 2476.95
29 38.3034 88.0081 38.1283 2476.95
30 62.912 88.3583 37.5791 2476.95
31 87.8502 87.6099 37.524 2476.95
32 12.4408 11.3976 62.3798 2476.95
33 37.8571 11.7911 62.6717 2476.95
34 63.1489 12.2313 61.9713 2476.95
35 87.5275 12.5034 62.5721 2476.95
36 13.036 37.5996 63.039 2476.95
37 38.1042 37.2356 62.7403 2476.95
38 61.5559 37.1395 62.4142 2476.95
39 86.985 37.8845 62.0262 2476.95
40 12.9163 62.3081 61.9884 2476.95
41 38.1214 63.1798 62.4588 2476.95
42 63.1077 62.7985 63.015 2476.95
43 86.8202 62.5824 61.7241 2476.95
44 12.8905 88.0287 62.3833 2476.95
45 37.1086 87.9051 62.6854 2476.95
46 62.4588 86.8958 62.5893 2476.95
47 87.0193 87.5893 61.7584 2476.95
48 12.2665 12.1676 87.3077 2476.95
49 37.9395 12.5249 87.4863 2476.95
50 63.7085 12.5318 88.1866 2476.95
51 87.1223 12.4245 87.4725 2476.95
52 12.8785 37.8227 88.2553 2476.95
53 38.1901 36.7378 87.4176 2476.95
54 62.1841 37.627 87.9807 2476.95
55 87.5206 36.7554 88.7016 2476.95
56 12.3987 62.6545 88.0013 2476.95
57 36.9781 62.7815 88.3308 2476.95
58 63.1969 62.5584 88.2072 2476.95
59 87.5412 63.2828 87.7815 2476.95
60 12.5417 88.2127 88.1523 2476.95
61 36.9576 88.1111 86.7241 2476.95
62 62.6476 87.2391 87.248 2476.95
63 86.8614 87.8914 87.6442 2476.95
ITEM: TIMESTEP
0.0009
ITEM: NUMBER OF ATOMS
64
ITEM: BOX BOUNDS pp pp pp
0 100
0 100
0 100
ITEM: ATOMS id x y z E
0 12.5925 13.0217 12.3007 2476.95
1 38.4346 12.4508 12.5248 2476.95
2 62.5839 13.7522 12.2229 2476.95
3 87.4237 12.5982 11.4177 2476.95
4 12.1338 38.076 12.6347 2476.95
5 37.7441 36.3403 12.3064 2476.95
6 61.7717 39.045 13.2572 2476.95
7 87.8433 37.3245 12.65 2476.95
8 12.7194 63.4033 12.5362 2476.95
9 36.8362 62.1986 12.6822 2476.95
10 62.0346 62.8673 13.1561 2476.95
11 87.6068 62.191 12.4548 2476.95
12 12.1443 87.2559 12.8777 2476.95
13 36.7867 87.7289 13.0054 2476.95
14 62.2101 87.3016 13.3866 2476.95
15 87.767 87.8052 12.7975 2476.95
16 11.862 12.3208 37.2826 2476.95
17 36.9736 12.8948 37.7747 2476.95
18 63.4671 12.8433 37.1262 2476.95
19 87.0193 12.3274 37.9234 2476.95
20 12.1237 37.5839 37.5191 2476.95
21 37.7785 37.8014 38.1905 2476.95
22 62.3169 37.7899 37.5916 2476.95
23 88.5452 37.2482 37.706 2476.95
24 12.3093 63.5796 37.9082 2476.95
25 37.5534 62.6411 37.9692 2476.95
26 63.2172 62.1665 37.4046 2476.95
27 87.3703 62.5038 37.7438 2476.95
28 11.5015 88.0417 38.5986 2476.95
29 38.3926 88.0646 38.1981 2476.95
30 62.9578 88.4537 37.5883 2476.95
31 87.8891 87.6221 37.5267 2476.95
32 12.4342 11.2753 62.3665 2476.95
33 37.8967 11.7124 62.6907 2476.95
34 63.221 12.2015 61.9125 2476.95
35 87.5305 12.5038 62.5801 2476.95
36 13.0956 37.6106 63.0989 2476.95
37 38.1714 37.2063 62.767 2476.95
38 61.451 37.0995 62.4046 2476.95
39 86.9278 37.9271 61.9736 2476.95
40 12.9625 62.2871 61.9316 2476.95
41 38.1905 63.2553 62.4542 2476.95
42 63.1752 62.8313 63.0722 2476.95
43 86.7447 62.5916 61.6379 2476.95
44 12.9338 88.087 62.3703 2476.95
45 37.0651 87.9501 62.706 2476.95
46 62.4542 86.8286 62.5992 2476.95
47 86.9659 87.5992 61.676 2476.95
48 12.2406 12.1308 87.2864 2476.95
49 37.9883 12.5277 87.4847 2476.95
50 63.8428 12.5353 88.2629 2476.95
51 87.0804 12.4161 87.4695 2476.95
52 12.9206 37.8586 88.3392 2476.95
53 38.2668 36.6531 87.4084 2476.95
54 62.149 37.6411 88.0341 2476.95
55 87.5229 36.673 88.835 2476.95
56 12.3873 62.6717 88.0569 2476.95
57 36.9202 62.8128 88.4232 2476.95
58 63.2744 62.5648 88.2858 2476.95
59 87.5458 63.3698 87.8128 2476.95
60 12.5463 88.2913 88.2248 2476.95
61 36.8973 88.179 86.6379 2476.95
62 62.664 87.2101 87.2205 2476.95
63 86.7905 87.9349 87.6602 2476.95
ITEM: TIMESTEP
0.001
ITEM: NUMBER OF ATOMS
64
ITEM: BOX BOUNDS pp pp pp
0 100
0 100
0 100
ITEM: ATOMS id x y z E
0 12.6018 13.0738 12.2808 2476.95
1 38.5281 12.4458 12.5273 2476.95
2 62.5923 13.8774 12.1952 2476.95
3 87.4161 12.6081 11.3095 2476.95
4 12.0973 38.1336 12.6482 2476.95
5 37.7686 36.2248 12.287 2476.95
6 61.6992 39.1994 13.3328 2476.95
7 87.8777 37.307 12.6651 2476.95
8 12.7414 63.4933 12.5399 2476.95
9 36.7699 62.1685 12.7005 2476.95
10 61.9881 62.9043 13.2217 2476.95
11 87.6167 62.1601 12.4503 2476.95
12 12.1087 87.2314 12.9154 2476.95
13 36.7153 87.7518 13.056 2476.95
14 62.1811 87.2818 13.4752 2476.95
15 87.7937 87.8357 12.8273 2476.95
16 11.7982 12.3029 37.2608 2476.95
17 36.9209 12.9343 37.8021 2476.95
18 63.5636 12.8777 37.0888 2476.95
19 86.9713 12.3101 37.9658 2476.95
20 12.0862 37.5923 37.521 2476.95
21 37.8063 37.8315 38.2595 2476.95
22 62.2987 37.8189 37.6007 2476.95
23 88.6497 37.2231 37.7266 2476.95
24 12.2902 63.6875 37.949 2476.95
25 37.5587 62.6553 38.0161 2476.95
26 63.2889 62.1333 37.3951 2476.95
27 87.3573 62.5042 37.7678 2476.95
28 11.4018 88.0959 38.7085 2476.95
29 38.4817 88.121 38.2679 2476.95
30 63.0035 88.549 37.5974 2476.95
31 87.928 87.6343 37.5294 2476.95
32 12.4276 11.153 62.3531 2476.95
33 37.9364 11.6337 62.7098 2476.95
34 63.2931 12.1716 61.8538 2476.95
35 87.5336 12.5042 62.5881 2476.95
36 13.1551 37.6216 63.1588 2476.95
37 38.2385 37.1769 62.7937 2476.95
38 61.3461 37.0594 62.3951 2476.95
39 86.8706 37.9695 61.9209 2476.95
40 13.0088 62.2661 61.8748 2476.95
41 38.2595 63.3308 62.4496 2476.95
42 63.2427 62.8641 63.1294 2476.95
43 86.6692 62.601 61.5517 2476.95
44 12.9771 88.145 62.3574 2476.95
45 37.0216 87.9951 62.7266 2476.95
46 62.4496 86.7615 62.6091 2476.95
47 86.9125 87.6091 61.5936 2476.95
48 12.2147 12.094 87.265 2476.95
49 38.0371 12.5304 87.4832 2476.95
50 63.9771 12.5388 88.3392 2476.95
51 87.0384 12.4077 87.4664 2476.95
52 12.9626 37.8944 88.4232 2476.95
53 38.3434 36.5685 87.3993 2476.95
54 62.114 37.6553 88.0875 2476.95
55 87.5252 36.5906 88.9677 2476.95
56 12.376 62.6888 88.1126 2476.95
57 36.8622 62.8441 88.5155 2476.95
58 63.3518 62.5713 88.3644 2476.95
59 87.5504 63.4567 87.8441 2476.95
60 12.5509 88.3699 88.2973 2476.95
61 36.837 88.2469 86.5517 2476.95
62 62.6804 87.1811 87.193 2476.95
63 86.7195 87.9784 87.6762 2476.95
ITEM: TIMESTEP
0.0011
ITEM: NUMBER OF ATOMS
64
ITEM: BOX BOUNDS pp pp pp
0 100
0 100
0 100
ITEM: ATOMS id x y z E
0 12.611 13.126 12.2608 2476.95
1 38.6215 12.4408 12.5298 2476.95
2 62.6007 14.0026 12.1676 2476.95
3 87.4084 12.6179 11.2014 2476.95
4 12.0608 38.1912 12.6618 2476.95
5 37.793 36.1092 12.2677 2476.95
6 61.6267 39.3539 13.4084 2476.95
7 87.912 37.2894 12.6802 2476.95
8 12.7633 63.5834 12.5436 2476.95
9 36.7035 62.1384 12.7188 2476.95
10 61.9415 62.9413 13.2874 2476.95
11 87.6266 62.1292 12.4458 2476.95
12 12.0731 87.207 12.9533 2476.95
13 36.644 87.7747 13.1065 2476.95
14 62.1521 87.262 13.5638 2476.95
15 87.8204 87.8662 12.8571 2476.95
16 11.7344 12.2851 37.2391 2476.95
17 36.8683 12.9738 37.8296 2476.95
18 63.6601 12.912 37.0514 2476.95
19 86.9232 12.2929 38.0081 2476.95
20 12.0487 37.6007 37.5229 2476.95
21 37.8342 37.8616 38.3286 2476.95
22 62.2808 37.8479 37.6099 2476.95
23 88.7543 37.1979 37.7472 2476.95
24 12.2711 63.7955 37.9898 2476.95
25 37.5641 62.6694 38.063 2476.95
26 63.3606 62.1001 37.3856 2476.95
27 87.3444 62.5046 37.7919 2476.95
28 11.3021 88.15 38.8181 2476.95
29 38.5705 88.1775 38.3377 2476.95
30 63.0493 88.6444 37.6066 2476.95
31 87.9669 87.6465 37.532 2476.95
32 12.421 11.0307 62.3398 2476.95
33 37.9761 11.555 62.7289 2476.95
34 63.3652 12.1416 61.795 2476.95
35 87.5366 12.5046 62.5961 2476.95
36 13.2146 37.6323 63.2187 2476.95
37 38.3057 37.1475 62.8204 2476.95
38 61.2411 37.0193 62.3856 2476.95
39 86.8134 38.0118 61.8683 2476.95
40 13.055 62.2451 61.8179 2476.95
41 38.3286 63.4062 62.4451 2476.95
42 63.3102 62.8969 63.1866 2476.95
43 86.5936 62.6105 61.4656 2476.95
44 13.0204 88.203 62.3448 2476.95
45 36.9781 88.0402 62.7472 2476.95
46 62.4451 86.6943 62.619 2476.95
47 86.8591 87.619 61.5112 2476.95
48 12.1887 12.0572 87.2437 2476.95
49 38.0859 12.5332 87.4817 2476.95
50 64.1113 12.5423 88.4155 2476.95
51 86.9965 12.3993 87.4634 2476.95
52 13.0047 37.9303 88.5071 2476.95
53 38.4201 36.4838 87.3901 2476.95
54 62.0789 37.6694 88.1409 2476.95
55 87.5275 36.5082 89.1005 2476.95
56 12.3646 62.706 88.1683 2476.95
57 36.8046 62.8754 88.6078 2476.95
58 63.4293 62.5778 88.443 2476.95
59 87.5549 63.5437 87.8754 2476.95
60 12.5554 88.4484 88.3698 2476.95
61 36.7767 88.3148 86.4655 2476.95
62 62.6968 87.1521 87.1656 2476.95
63 86.6486 88.0219 87.6923 2476.95
ITEM: TIMESTEP
0.0012
ITEM: NUMBER OF ATOMS
64
ITEM: BOX BOUNDS pp pp pp
0 100
0 100
0 100
ITEM: ATOMS id x y z E
0 12.6203 13.1782 12.2409 2476.95
1 38.715 12.4357 12.5322 2476.95
2 62.6091 14.1278 12.1399 2476.95
3 87.4008 12.6277 11.0933 2476.95
4 12.0242 38.2488 12.6753 2476.95
5 37.8174 35.9936 12.2483 2476.95
6 61.5543 39.5084 13.484 2476.95
7 87.9463 37.2719 12.6954 2476.95
8 12.7851 63.6734 12.5473 2476.95
9 36.6371 62.1082 12.7371 2476.95
10 61.895 62.9783 13.3529 2476.95
11 87.6365 62.0983 12.4414 2476.95
12 12.0376 87.1826 12.9912 2476.95
13 36.5726 87.7975 13.157 2476.95
14 62.1231 87.2421 13.6524 2476.95
15 87.8468 87.8967 12.8868 2476.95
16 11.6706 12.2673 37.2173 2476.95