ITEM: TIMESTEP
0
ITEM: NUMBER OF ATOMS
500
ITEM: BOX BOUNDS pp pp pp
0 1
0 1
0 1
ITEM: ATOMS id x y z E
0 0.05 0.05 0.05 0
1 0.05 0.15 0.15 0
2 0.15 0.05 0.15 0
3 0.15 0.15 0.05 0
4 0.05 0.05 0.25 0
5 0.05 0.15 0.35 0
6 0.15 0.05 0.35 0
7 0.15 0.15 0.25 0
8 0.05 0.05 0.45 0
9 0.05 0.15 0.55 0
10 0.15 0.05 0.55 0
11 0.15 0.15 0.45 0
12 0.05 0.05 0.65 0
13 0.05 0.15 0.75 0
14 0.15 0.05 0.75 0
15 0.15 0.15 0.65 0
16 0.05 0.05 0.85 0
17 0.05 0.15 0.95 0
18 0.15 0.05 0.95 0
19 0.15 0.15 0.85 0
20 0.05 0.25 0.05 0
21 0.05 0.35 0.15 0
22 0.15 0.25 0.15 0
23 0.15 0.35 0.05 0
24 0.05 0.25 0.25 0
25 0.05 0.35 0.35 0
26 0.15 0.25 0.35 0
27 0.15 0.35 0.25 0
28 0.05 0.25 0.45 0
29 0.05 0.35 0.55 0
30 0.15 0.25 0.55 0
31 0.15 0.35 0.45 0
32 0.05 0.25 0.65 0
33 0.05 0.35 0.75 0
34 0.15 0.25 0.75 0
35 0.15 0.35 0.65 0
36 0.05 0.25 0.85 0
37 0.05 0.35 0.95 0
38 0.15 0.25 0.95 0
39 0.15 0.35 0.85 0
40 0.05 0.45 0.05 0
41 0.05 0.55 0.15 0
42 0.15 0.45 0.15 0
43 0.15 0.55 0.05 0
44 0.05 0.45 0.25 0
45 0.05 0.55 0.35 0
46 0.15 0.45 0.35 0
47 0.15 0.55 0.25 0
48 0.05 0.45 0.45 0
49 0.05 0.55 0.55 0
50 0.15 0.45 0.55 0
51 0.15 0.55 0.45 0
52 0.05 0.45 0.65 0
53 0.05 0.55 0.75 0
54 0.15 0.45 0.75 0
55 0.15 0.55 0.65 0
56 0.05 0.45 0.85 0
57 0.05 0.55 0.95 0
58 0.15 0.45 0.95 0
59 0.15 0.55 0.85 0
60 0.05 0.65 0.05 0
61 0.05 0.75 0.15 0
62 0.15 0.65 0.15 0
63 0.15 0.75 0.05 0
64 0.05 0.65 0.25 0
65 0.05 0.75 0.35 0
66 0.15 0.65 0.35 0
67 0.15 0.75 0.25 0
68 0.05 0.65 0.45 0
69 0.05 0.75 0.55 0
70 0.15 0.65 0.55 0
71 0.15 0.75 0.45 0
72 0.05 0.65 0.65 0
73 0.05 0.75 0.75 0
74 0.15 0.65 0.75 0
75 0.15 0.75 0.65 0
76 0.05 0.65 0.85 0
77 0.05 0.75 0.95 0
78 0.15 0.65 0.95 0
79 0.15 0.75 0.85 0
80 0.05 0.85 0.05 0
81 0.05 0.95 0.15 0
82 0.15 0.85 0.15 0
83 0.15 0.95 0.05 0
84 0.05 0.85 0.25 0
85 0.05 0.95 0.35 0
86 0.15 0.85 0.35 0
87 0.15 0.95 0.25 0
88 0.05 0.85 0.45 0
89 0.05 0.95 0.55 0
90 0.15 0.85 0.55 0
91 0.15 0.95 0.45 0
92 0.05 0.85 0.65 0
93 0.05 0.95 0.75 0
94 0.15 0.85 0.75 0
95 0.15 0.95 0.65 0
96 0.05 0.85 0.85 0
97 0.05 0.95 0.95 0
98 0.15 0.85 0.95 0
99 0.15 0.95 0.85 0
100 0.25 0.05 0.05 0
101 0.25 0.15 0.15 0
102 0.35 0.05 0.15 0
103 0.35 0.15 0.05 0
104 0.25 0.05 0.25 0
105 0.25 0.15 0.35 0
106 0.35 0.05 0.35 0
107 0.35 0.15 0.25 0
108 0.25 0.05 0.45 0
109 0.25 0.15 0.55 0
110 0.35 0.05 0.55 0
111 0.35 0.15 0.45 0
112 0.25 0.05 0.65 0
113 0.25 0.15 0.75 0
114 0.35 0.05 0.75 0
115 0.35 0.15 0.65 0
116 0.25 0.05 0.85 0
117 0.25 0.15 0.95 0
118 0.35 0.05 0.95 0
119 0.35 0.15 0.85 0
120 0.25 0.25 0.05 0
121 0.25 0.35 0.15 0
122 0.35 0.25 0.15 0
123 0.35 0.35 0.05 0
124 0.25 0.25 0.25 0
125 0.25 0.35 0.35 0
126 0.35 0.25 0.35 0
127 0.35 0.35 0.25 0
128 0.25 0.25 0.45 0
129 0.25 0.35 0.55 0
130 0.35 0.25 0.55 0
131 0.35 0.35 0.45 0
132 0.25 0.25 0.65 0
133 0.25 0.35 0.75 0
134 0.35 0.25 0.75 0
135 0.35 0.35 0.65 0
136 0.25 0.25 0.85 0
137 0.25 0.35 0.95 0
138 0.35 0.25 0.95 0
139 0.35 0.35 0.85 0
140 0.25 0.45 0.05 0
141 0.25 0.55 0.15 0
142 0.35 0.45 0.15 0
143 0.35 0.55 0.05 0
144 0.25 0.45 0.25 0
145 0.25 0.55 0.35 0
146 0.35 0.45 0.35 0
147 0.35 0.55 0.25 0
148 0.25 0.45 0.45 0
149 0.25 0.55 0.55 0
150 0.35 0.45 0.55 0
151 0.35 0.55 0.45 0
152 0.25 0.45 0.65 0
153 0.25 0.55 0.75 0
154 0.35 0.45 0.75 0
155 0.35 0.55 0.65 0
156 0.25 0.45 0.85 0
157 0.25 0.55 0.95 0
158 0.35 0.45 0.95 0
159 0.35 0.55 0.85 0
160 0.25 0.65 0.05 0
161 0.25 0.75 0.15 0
162 0.35 0.65 0.15 0
163 0.35 0.75 0.05 0
164 0.25 0.65 0.25 0
165 0.25 0.75 0.35 0
166 0.35 0.65 0.35 0
167 0.35 0.75 0.25 0
168 0.25 0.65 0.45 0
169 0.25 0.75 0.55 0
170 0.35 0.65 0.55 0
171 0.35 0.75 0.45 0
172 0.25 0.65 0.65 0
173 0.25 0.75 0.75 0
174 0.35 0.65 0.75 0
175 0.35 0.75 0.65 0
176 0.25 0.65 0.85 0
177 0.25 0.75 0.95 0
178 0.35 0.65 0.95 0
179 0.35 0.75 0.85 0
180 0.25 0.85 0.05 0
181 0.25 0.95 0.15 0
182 0.35 0.85 0.15 0
183 0.35 0.95 0.05 0
184 0.25 0.85 0.25 0
185 0.25 0.95 0.35 0
186 0.35 0.85 0.35 0
187 0.35 0.95 0.25 0
188 0.25 0.85 0.45 0
189 0.25 0.95 0.55 0
190 0.35 0.85 0.55 0
191 0.35 0.95 0.45 0
192 0.25 0.85 0.65 0
193 0.25 0.95 0.75 0
194 0.35 0.85 0.75 0
195 0.35 0.95 0.65 0
196 0.25 0.85 0.85 0
197 0.25 0.95 0.95 0
198 0.35 0.85 0.95 0
199 0.35 0.95 0.85 0
200 0.45 0.05 0.05 0
201 0.45 0.15 0.15 0
202 0.55 0.05 0.15 0
203 0.55 0.15 0.05 0
204 0.45 0.05 0.25 0
205 0.45 0.15 0.35 0
206 0.55 0.05 0.35 0
207 0.55 0.15 0.25 0
208 0.45 0.05 0.45 0
209 0.45 0.15 0.55 0
210 0.55 0.05 0.55 0
211 0.55 0.15 0.45 0
212 0.45 0.05 0.65 0
213 0.45 0.15 0.75 0
214 0.55 0.05 0.75 0
215 0.55 0.15 0.65 0
216 0.45 0.05 0.85 0
217 0.45 0.15 0.95 0
218 0.55 0.05 0.95 0
219 0.55 0.15 0.85 0
220 0.45 0.25 0.05 0
221 0.45 0.35 0.15 0
222 0.55 0.25 0.15 0
223 0.55 0.35 0.05 0
224 0.45 0.25 0.25 0
225 0.45 0.35 0.35 0
226 0.55 0.25 0.35 0
227 0.55 0.35 0.25 0
228 0.45 0.25 0.45 0
229 0.45 0.35 0.55 0
230 0.55 0.25 0.55 0
231 0.55 0.35 0.45 0
232 0.45 0.25 0.65 0
233 0.45 0.35 0.75 0
234 0.55 0.25 0.75 0
235 0.55 0.35 0.65 0
236 0.45 0.25 0.85 0
237 0.45 0.35 0.95 0
238 0.55 0.25 0.95 0
239 0.55 0.35 0.85 0
240 0.45 0.45 0.05 0
241 0.45 0.55 0.15 0
242 0.55 0.45 0.15 0
243 0.55 0.55 0.05 0
244 0.45 0.45 0.25 0
245 0.45 0.55 0.35 0
246 0.55 0.45 0.35 0
247 0.55 0.55 0.25 0
248 0.45 0.45 0.45 0
249 0.45 0.55 0.55 0
250 0.55 0.45 0.55 0
251 0.55 0.55 0.45 0
252 0.45 0.45 0.65 0
253 0.45 0.55 0.75 0
254 0.55 0.45 0.75 0
255 0.55 0.55 0.65 0
256 0.45 0.45 0.85 0
257 0.45 0.55 0.95 0
258 0.55 0.45 0.95 0
259 0.55 0.55 0.85 0
260 0.45 0.65 0.05 0
261 0.45 0.75 0.15 0
262 0.55 0.65 0.15 0
263 0.55 0.75 0.05 0
264 0.45 0.65 0.25 0
265 0.45 0.75 0.35 0
266 0.55 0.65 0.35 0
267 0.55 0.75 0.25 0
268 0.45 0.65 0.45 0
269 0.45 0.75 0.55 0
270 0.55 0.65 0.55 0
271 0.55 0.75 0.45 0
272 0.45 0.65 0.65 0
273 0.45 0.75 0.75 0
274 0.55 0.65 0.75 0
275 0.55 0.75 0.65 0
276 0.45 0.65 0.85 0
277 0.45 0.75 0.95 0
278 0.55 0.65 0.95 0
279 0.55 0.75 0.85 0
280 0.45 0.85 0.05 0
281 0.45 0.95 0.15 0
282 0.55 0.85 0.15 0
283 0.55 0.95 0.05 0
284 0.45 0.85 0.25 0
285 0.45 0.95 0.35 0
286 0.55 0.85 0.35 0
287 0.55 0.95 0.25 0
288 0.45 0.85 0.45 0
289 0.45 0.95 0.55 0
290 0.55 0.85 0.55 0
291 0.55 0.95 0.45 0
292 0.45 0.85 0.65 0
293 0.45 0.95 0.75 0
294 0.55 0.85 0.75 0
295 0.55 0.95 0.65 0
296 0.45 0.85 0.85 0
297 0.45 0.95 0.95 0
298 0.55 0.85 0.95 0
299 0.55 0.95 0.85 0
300 0.65 0.05 0.05 0
301 0.65 0.15 0.15 0
302 0.75 0.05 0.15 0
303 0.75 0.15 0.05 0
304 0.65 0.05 0.25 0
305 0.65 0.15 0.35 0
306 0.75 0.05 0.35 0
307 0.75 0.15 0.25 0
308 0.65 0.05 0.45 0
309 0.65 0.15 0.55 0
310 0.75 0.05 0.55 0
311 0.75 0.15 0.45 0
312 0.65 0.05 0.65 0
313 0.65 0.15 0.75 0
314 0.75 0.05 0.75 0
315 0.75 0.15 0.65 0
316 0.65 0.05 0.85 0
317 0.65 0.15 0.95 0
318 0.75 0.05 0.95 0
319 0.75 0.15 0.85 0
320 0.65 0.25 0.05 0
321 0.65 0.35 0.15 0
322 0.75 0.25 0.15 0
323 0.75 0.35 0.05 0
324 0.65 0.25 0.25 0
325 0.65 0.35 0.35 0
326 0.75 0.25 0.35 0
327 0.75 0.35 0.25 0
328 0.65 0.25 0.45 0
329 0.65 0.35 0.55 0
330 0.75 0.25 0.55 0
331 0.75 0.35 0.45 0
332 0.65 0.25 0.65 0
333 0.65 0.35 0.75 0
334 0.75 0.25 0.75 0
335 0.75 0.35 0.65 0
336 0.65 0.25 0.85 0
337 0.65 0.35 0.95 0
338 0.75 0.25 0.95 0
339 0.75 0.35 0.85 0
340 0.65 0.45 0.05 0
341 0.65 0.55 0.15 0
342 0.75 0.45 0.15 0
343 0.75 0.55 0.05 0
344 0.65 0.45 0.25 0
345 0.65 0.55 0.35 0
346 0.75 0.45 0.35 0
347 0.75 0.55 0.25 0
348 0.65 0.45 0.45 0
349 0.65 0.55 0.55 0
350 0.75 0.45 0.55 0
351 0.75 0.55 0.45 0
352 0.65 0.45 0.65 0
353 0.65 0.55 0.75 0
354 0.75 0.45 0.75 0
355 0.75 0.55 0.65 0
356 0.65 0.45 0.85 0
357 0.65 0.55 0.95 0
358 0.75 0.45 0.95 0
359 0.75 0.55 0.85 0
360 0.65 0.65 0.05 0
361 0.65 0.75 0.15 0
362 0.75 0.65 0.15 0
363 0.75 0.75 0.05 0
364 0.65 0.65 0.25 0
365 0.65 0.75 0.35 0
366 0.75 0.65 0.35 0
367 0.75 0.75 0.25 0
368 0.65 0.65 0.45 0
369 0.65 0.75 0.55 0
370 0.75 0.65 0.55 0
371 0.75 0.75 0.45 0
372 0.65 0.65 0.65 0
373 0.65 0.75 0.75 0
374 0.75 0.65 0.75 0
375 0.75 0.75 0.65 0
376 0.65 0.65 0.85 0
377 0.65 0.75 0.95 0
378 0.75 0.65 0.95 0
379 0.75 0.75 0.85 0
380 0.65 0.85 0.05 0
381 0.65 0.95 0.15 0
382 0.75 0.85 0.15 0
383 0.75 0.95 0.05 0
384 0.65 0.85 0.25 0
385 0.65 0.95 0.35 0
386 0.75 0.85 0.35 0
387 0.75 0.95 0.25 0
388 0.65 0.85 0.45 0
389 0.65 0.95 0.55 0
390 0.75 0.85 0.55 0
391 0.75 0.95 0.45 0
392 0.65 0.85 0.65 0
393 0.65 0.95 0.75 0
394 0.75 0.85 0.75 0
395 0.75 0.95 0.65 0
396 0.65 0.85 0.85 0
397 0.65 0.95 0.95 0
398 0.75 0.85 0.95 0
399 0.75 0.95 0.85 0
400 0.85 0.05 0.05 0
401 0.85 0.15 0.15 0
402 0.95 0.05 0.15 0
403 0.95 0.15 0.05 0
404 0.85 0.05 0.25 0
405 0.85 0.15 0.35 0
406 0.95 0.05 0.35 0
407 0.95 0.15 0.25 0
408 0.85 0.05 0.45 0
409 0.85 0.15 0.55 0
410 0.95 0.05 0.55 0
411 0.95 0.15 0.45 0
412 0.85 0.05 0.65 0
413 0.85 0.15 0.75 0
414 0.95 0.05 0.75 0
415 0.95 0.15 0.65 0
416 0.85 0.05 0.85 0
417 0.85 0.15 0.95 0
418 0.95 0.05 0.95 0
419 0.95 0.15 0.85 0
420 0.85 0.25 0.05 0
421 0.85 0.35 0.15 0
422 0.95 0.25 0.15 0
423 0.95 0.35 0.05 0
424 0.85 0.25 0.25 0
425 0.85 0.35 0.35 0
426 0.95 0.25 0.35 0
427 0.95 0.35 0.25 0
428 0.85 0.25 0.45 0
429 0.85 0.35 0.55 0
430 0.95 0.25 0.55 0
431 0.95 0.35 0.45 0
432 0.85 0.25 0.65 0
433 0.85 0.35 0.75 0
434 0.95 0.25 0.75 0
435 0.95 0.35 0.65 0
436 0.85 0.25 0.85 0
437 0.85 0.35 0.95 0
438 0.95 0.25 0.95 0
439 0.95 0.35 0.85 0
440 0.85 0.45 0.05 0
441 0.85 0.55 0.15 0
442 0.95 0.45 0.15 0
443 0.95 0.55 0.05 0
444 0.85 0.45 0.25 0
445 0.85 0.55 0.35 0
446 0.95 0.45 0.35 0
447 0.95 0.55 0.25 0
448 0.85 0.45 0.45 0
449 0.85 0.55 0.55 0
450 0.95 0.45 0.55 0
451 0.95 0.55 0.45 0
452 0.85 0.45 0.65 0
453 0.85 0.55 0.75 0
454 0.95 0.45 0.75 0
455 0.95 0.55 0.65 0
456 0.85 0.45 0.85 0
457 0.85 0.55 0.95 0
458 0.95 0.45 0.95 0
459 0.95 0.55 0.85 0
460 0.85 0.65 0.05 0
461 0.85 0.75 0.15 0
462 0.95 0.65 0.15 0
463 0.95 0.75 0.05 0
464 0.85 0.65 0.25 0
465 0.85 0.75 0.35 0
466 0.95 0.65 0.35 0
467 0.95 0.75 0.25 0
468 0.85 0.65 0.45 0
469 0.85 0.75 0.55 0
470 0.95 0.65 0.55 0
471 0.95 0.75 0.45 0
472 0.85 0.65 0.65 0
473 0.85 0.75 0.75 0
474 0.95 0.65 0.75 0
475 0.95 0.75 0.65 0
476 0.85 0.65 0.85 0
477 0.85 0.75 0.95 0
478 0.95 0.65 0.95 0
479 0.95 0.75 0.85 0
480 0.85 0.85 0.05 0
481 0.85 0.95 0.15 0
482 0.95 0.85 0.15 0
483 0.95 0.95 0.05 0
484 0.85 0.85 0.25 0
485 0.85 0.95 0.35 0
486 0.95 0.85 0.35 0
487 0.95 0.95 0.25 0
488 0.85 0.85 0.45 0
489 0.85 0.95 0.55 0
490 0.95 0.85 0.55 0
491 0.95 0.95 0.45 0
492 0.85 0.85 0.65 0
493 0.85 0.95 0.75 0
494 0.95 0.85 0.75 0
495 0.95 0.95 0.65 0
496 0.85 0.85 0.85 0
497 0.85 0.95 0.95 0
498 0.95 0.85 0.95 0
499 0.95 0.95 0.85 0
ITEM: TIMESTEP
0
ITEM: NUMBER OF ATOMS
500
ITEM: BOX BOUNDS pp pp pp
0 1
0 1
0 1
ITEM: ATOMS id x y z E
0 0.049988 0.0499896 0.0500089 7.16445
1 0.0499873 0.150003 0.149997 7.16445
2 0.150005 0.0500063 0.150004 7.16445
3 0.15 0.150008 0.0500113 7.16445
4 0.04999 0.0499942 0.249982 7.16445
5 0.0500057 0.150015 0.350014 7.16445
6 0.15001 0.0499843 0.349984 7.16445
7 0.149995 0.15001 0.250004 7.16445
8 0.0499852 0.0500117 0.449974 7.16445
9 0.0500021 0.150012 0.549983 7.16445
10 0.149999 0.0499885 0.549997 7.16445
11 0.150003 0.15001 0.44998 7.16445
12 0.0500105 0.0499861 0.649996 7.16445
13 0.0500078 0.149999 0.750003 7.16445
14 0.149991 0.0500004 0.750015 7.16445
15 0.15001 0.150003 0.649996 7.16445
16 0.0500025 0.050013 0.850011 7.16445
17 0.049996 0.149999 0.949997 7.16445
18 0.150003 0.0499965 0.94999 7.16445
19 0.150006 0.150005 0.850005 7.16445
20 0.0500005 0.250006 0.0499933 7.16445
21 0.0500045 0.350007 0.15 7.16445
22 0.149989 0.250001 0.150001 7.16445
23 0.150005 0.349999 0.05 7.16445
24 0.0500139 0.249992 0.250016 7.16445
25 0.0499969 0.349988 0.350017 7.16445
26 0.149975 0.249998 0.350004 7.16445
27 0.150002 0.350002 0.249995 7.16445
28 0.0500069 0.25001 0.449998 7.16445
29 0.0500138 0.350009 0.549991 7.16445
30 0.149992 0.249997 0.549994 7.16445
31 0.149994 0.349994 0.450018 7.16445
32 0.0499947 0.250003 0.650011 7.16445
33 0.049995 0.350011 0.749986 7.16445
34 0.149988 0.249996 0.750006 7.16445
35 0.150007 0.349987 0.64999 7.16445
36 0.0500043 0.249992 0.849999 7.16445
37 0.0500067 0.350006 0.949994 7.16445
38 0.150008 0.249996 0.95001 7.16445
39 0.15 0.350012 0.850008 7.16445
40 0.0500151 0.45 0.0500018 7.16445
41 0.0499854 0.549995 0.149989 7.16445
42 0.150008 0.449994 0.150012 7.16445
43 0.150009 0.550009 0.0500169 7.16445
44 0.0500143 0.450003 0.249989 7.16445
45 0.0499824 0.549999 0.350007 7.16445
46 0.149988 0.449995 0.349988 7.16445
47 0.150004 0.550004 0.250018 7.16445
48 0.0500087 0.450003 0.449986 7.16445
49 0.0499847 0.550002 0.549997 7.16445
50 0.149997 0.450002 0.549994 7.16445
51 0.150007 0.550016 0.449999 7.16445
52 0.0500093 0.449989 0.649999 7.16445
53 0.0499957 0.55 0.749997 7.16445
54 0.149996 0.449984 0.749993 7.16445
55 0.150012 0.549993 0.649999 7.16445
56 0.0500098 0.449998 0.849999 7.16445
57 0.0499863 0.550008 0.949994 7.16445
58 0.149991 0.44999 0.950009 7.16445
59 0.149998 0.550001 0.85001 7.16445
60 0.0499891 0.649998 0.0499977 7.16445
61 0.0500023 0.749997 0.149985 7.16445
62 0.15 0.650012 0.149984 7.16445
63 0.150012 0.749998 0.0499859 7.16445
64 0.049998 0.649988 0.249992 7.16445
65 0.0500009 0.749991 0.349995 7.16445
66 0.149988 0.649994 0.349992 7.16445
67 0.150008 0.749994 0.250002 7.16445
68 0.0499973 0.65 0.450014 7.16445
69 0.0500008 0.750007 0.549993 7.16445
70 0.15001 0.65 0.549995 7.16445
71 0.150006 0.749998 0.449993 7.16445
72 0.049978 0.650003 0.650021 7.16445
73 0.050016 0.749997 0.749996 7.16445
74 0.150002 0.649993 0.750001 7.16445
75 0.150009 0.750004 0.649999 7.16445
76 0.0500158 0.650002 0.850011 7.16445
77 0.0500155 0.750008 0.949984 7.16445
78 0.149997 0.649992 0.950015 7.16445
79 0.15 0.749976 0.849996 7.16445
80 0.0500042 0.849984 0.0499763 7.16445
81 0.0499891 0.950005 0.149983 7.16445
82 0.149975 0.849984 0.149996 7.16445
83 0.149997 0.949995 0.0500175 7.16445
84 0.0500024 0.850008 0.250006 7.16445
85 0.0499848 0.949999 0.35001 7.16445
86 0.150002 0.849992 0.350003 7.16445
87 0.149998 0.949993 0.250021 7.16445
88 0.0499918 0.849998 0.450009 7.16445
89 0.0499975 0.949997 0.54999 7.16445
90 0.149999 0.850011 0.55001 7.16445
91 0.150009 0.949984 0.449993 7.16445
92 0.0499948 0.850014 0.650011 7.16445
93 0.049993 0.949995 0.749994 7.16445
94 0.150006 0.849991 0.749998 7.16445
95 0.150001 0.95001 0.649989 7.16445
96 0.0499985 0.849994 0.850016 7.16445
97 0.0499987 0.950009 0.949996 7.16445
98 0.149995 0.849991 0.949993 7.16445
99 0.150005 0.950006 0.850006 7.16445
100 0.249997 0.0499906 0.0500168 7.16445
101 0.249993 0.149988 0.15001 7.16445
102 0.350009 0.0499862 0.150006 7.16445
103 0.349995 0.149982 0.0500066 7.16445
104 0.249999 0.0499981 0.249998 7.16445
105 0.249991 0.149988 0.349999 7.16445
106 0.350011 0.0499919 0.350002 7.16445
107 0.350001 0.149998 0.24999 7.16445
108 0.250008 0.0500215 0.450001 7.16445
109 0.250004 0.14998 0.549995 7.16445
110 0.349993 0.0500078 0.549985 7.16445
111 0.349995 0.149998 0.449988 7.16445
112 0.250008 0.0500098 0.64999 7.16445
113 0.25 0.150009 0.750001 7.16445
114 0.349983 0.0499995 0.749978 7.16445
115 0.349999 0.150018 0.650007 7.16445
116 0.249985 0.0500167 0.850005 7.16445
117 0.249992 0.15 0.950016 7.16445
118 0.350006 0.0500096 0.949992 7.16445
119 0.350013 0.149991 0.85 7.16445
120 0.250028 0.249977 0.0499867 7.16445
121 0.249993 0.349985 0.149991 7.16445
122 0.349995 0.250001 0.150016 7.16445
123 0.350004 0.350016 0.0500057 7.16445
124 0.249997 0.249995 0.250009 7.16445
125 0.249997 0.349992 0.350014 7.16445
126 0.349997 0.249983 0.349997 7.16445
127 0.349992 0.350008 0.249997 7.16445
128 0.249995 0.249991 0.450012 7.16445
129 0.249989 0.350019 0.550008 7.16445
130 0.350009 0.250003 0.549994 7.16445
131 0.350014 0.35 0.450004 7.16445
132 0.250006 0.249998 0.650001 7.16445
133 0.25001 0.349999 0.750002 7.16445
134 0.349992 0.249994 0.749989 7.16445
135 0.349993 0.349992 0.649995 7.16445
136 0.250009 0.250005 0.850005 7.16445
137 0.25001 0.349998 0.949996 7.16445
138 0.350016 0.249994 0.950012 7.16445
139 0.350007 0.349973 0.850015 7.16445
140 0.250003 0.450012 0.0500034 7.16445
141 0.249995 0.549985 0.150002 7.16445
142 0.34999 0.449989 0.150008 7.16445
143 0.350006 0.549999 0.0500074 7.16445
144 0.249991 0.449991 0.250018 7.16445
145 0.250002 0.550003 0.349999 7.16445
146 0.349992 0.45 0.349996 7.16445
147 0.349983 0.550005 0.249988 7.16445
148 0.249994 0.450009 0.450014 7.16445
149 0.250015 0.550002 0.55 7.16445
150 0.350007 0.449992 0.550007 7.16445
151 0.350003 0.549994 0.449995 7.16445
152 0.250003 0.45001 0.650027 7.16445
153 0.249994 0.549985 0.749994 7.16445
154 0.349986 0.450019 0.749983 7.16445
155 0.350001 0.55001 0.649999 7.16445
156 0.250012 0.449977 0.850007 7.16445
157 0.249995 0.549988 0.950007 7.16445
158 0.349995 0.449997 0.949981 7.16445
159 0.35001 0.550013 0.849992 7.16445
160 0.250004 0.650004 0.0499974 7.16445
161 0.250002 0.750007 0.150007 7.16445
162 0.349987 0.649994 0.149997 7.16445
163 0.349991 0.750004 0.0500044 7.16445
164 0.249996 0.649998 0.249992 7.16445
165 0.250008 0.749997 0.350002 7.16445
166 0.35 0.649989 0.350016 7.16445
167 0.350015 0.749996 0.250008 7.16445
168 0.250003 0.649993 0.45 7.16445
169 0.250007 0.750008 0.549996 7.16445
170 0.349992 0.650001 0.549975 7.16445
171 0.350005 0.75 0.449991 7.16445
172 0.249984 0.650005 0.649994 7.16445
173 0.249988 0.750005 0.749983 7.16445
174 0.350005 0.649997 0.750005 7.16445
175 0.349991 0.750003 0.650001 7.16445
176 0.250001 0.649986 0.849988 7.16445
177 0.250003 0.749995 0.950004 7.16445
178 0.350014 0.650003 0.950018 7.16445
179 0.349986 0.749997 0.849998 7.16445
180 0.250001 0.850003 0.050016 7.16445
181 0.249995 0.949986 0.150003 7.16445
182 0.349996 0.850005 0.15001 7.16445
183 0.350002 0.950005 0.049999 7.16445
184 0.249997 0.850004 0.249995 7.16445
185 0.249995 0.949986 0.350003 7.16445
186 0.349997 0.849986 0.349999 7.16445
187 0.349985 0.94999 0.249997 7.16445
188 0.249999 0.850007 0.449995 7.16445
189 0.249986 0.950002 0.550007 7.16445
190 0.350008 0.85 0.54999 7.16445
191 0.349999 0.949999 0.449992 7.16445
192 0.249993 0.850003 0.650007 7.16445
193 0.249996 0.950002 0.749985 7.16445
194 0.350006 0.850002 0.75 7.16445
195 0.350013 0.950005 0.649992 7.16445
196 0.250003 0.850011 0.84999 7.16445
197 0.250019 0.950009 0.950002 7.16445
198 0.349996 0.849992 0.949995 7.16445
199 0.349994 0.949998 0.850004 7.16445
200 0.449996 0.0500026 0.0500015 7.16445
201 0.449995 0.150005 0.150007 7.16445
202 0.549995 0.0500164 0.150007 7.16445
203 0.549999 0.149992 0.0499987 7.16445
204 0.450001 0.0500198 0.249998 7.16445
205 0.449996 0.150002 0.35 7.16445
206 0.550002 0.0499897 0.350005 7.16445
207 0.550004 0.149985 0.250001 7.16445
208 0.450015 0.0500017 0.449996 7.16445
209 0.449991 0.149996 0.550006 7.16445
210 0.54999 0.0500087 0.549998 7.16445
211 0.549996 0.15001 0.450011 7.16445
212 0.449993 0.0500147 0.65001 7.16445
213 0.450013 0.149984 0.749991 7.16445
214 0.549991 0.0500003 0.749994 7.16445
215 0.550002 0.149998 0.649991 7.16445
216 0.450002 0.0499964 0.849994 7.16445
217 0.450005 0.150013 0.95001 7.16445
218 0.550005 0.0499942 0.95001 7.16445
219 0.550014 0.150027 0.850003 7.16445
220 0.44997 0.250002 0.0499995 7.16445
221 0.449967 0.350013 0.149995 7.16445
222 0.549997 0.249999 0.150008 7.16445
223 0.550011 0.350011 0.0500154 7.16445
224 0.45 0.249998 0.249999 7.16445
225 0.449986 0.350007 0.350006 7.16445
226 0.54999 0.250016 0.350008 7.16445
227 0.54998 0.350005 0.250009 7.16445
228 0.450003 0.250004 0.449999 7.16445
229 0.45001 0.350007 0.550002 7.16445
230 0.549991 0.249991 0.550005 7.16445
231 0.549996 0.35 0.449998 7.16445
232 0.449994 0.249997 0.650013 7.16445
233 0.449985 0.349987 0.749999 7.16445
234 0.549993 0.250006 0.75001 7.16445
235 0.549976 0.350007 0.650005 7.16445
236 0.45001 0.249993 0.849999 7.16445
237 0.450015 0.349999 0.950011 7.16445
238 0.549997 0.250007 0.949994 7.16445
239 0.550016 0.349999 0.850002 7.16445
240 0.449989 0.449985 0.0500028 7.16445
241 0.44999 0.549987 0.149993 7.16445
242 0.549987 0.450005 0.149976 7.16445
243 0.550011 0.550019 0.0499955 7.16445
244 0.449974 0.450003 0.249985 7.16445
245 0.450015 0.54999 0.350003 7.16445
246 0.550004 0.450014 0.349999 7.16445
247 0.550004 0.549994 0.249997 7.16445
248 0.450011 0.449992 0.449984 7.16445
249 0.45001 0.550004 0.549999 7.16445
250 0.549998 0.449991 0.550016 7.16445
251 0.550001 0.550008 0.449992 7.16445
252 0.449985 0.449996 0.649983 7.16445
253 0.449994 0.550011 0.750005 7.16445
254 0.55001 0.450007 0.749989 7.16445
255 0.550006 0.549992 0.650008 7.16445
256 0.449995 0.449986 0.849992 7.16445
257 0.449988 0.549997 0.950006 7.16445
258 0.549985 0.450003 0.949991 7.16445
259 0.549997 0.54999 0.850007 7.16445
260 0.449993 0.649997 0.0499974 7.16445
261 0.450001 0.750005 0.149992 7.16445
262 0.549997 0.650001 0.149988 7.16445
263 0.549998 0.749982 0.0499807 7.16445
264 0.449959 0.65 0.250006 7.16445
265 0.449992 0.749996 0.34998 7.16445
266 0.549991 0.649994 0.349985 7.16445
267 0.549994 0.749995 0.250015 7.16445
268 0.450008 0.650005 0.449997 7.16445
269 0.44999 0.749999 0.55 7.16445
270 0.55 0.650004 0.549988 7.16445
271 0.550008 0.750009 0.450004 7.16445
272 0.450021 0.649996 0.65 7.16445
273 0.449968 0.750006 0.750002 7.16445
274 0.549995 0.65001 0.749996 7.16445
275 0.549993 0.749991 0.650012 7.16445
276 0.449999 0.650016 0.850004 7.16445
277 0.449989 0.75 0.95001 7.16445
278 0.549987 0.649991 0.950003 7.16445
279 0.54999 0.749991 0.849995 7.16445
280 0.450005 0.850003 0.0500036 7.16445
281 0.449997 0.949999 0.150007 7.16445
282 0.550006 0.849999 0.149998 7.16445
283 0.550009 0.950007 0.0500021 7.16445
284 0.450006 0.849992 0.249996 7.16445
285 0.45 0.94999 0.350012 7.16445
286 0.550007 0.85 0.349985 7.16445
287 0.549996 0.950011 0.249978 7.16445
288 0.450004 0.850006 0.449999 7.16445
289 0.449997 0.950011 0.549983 7.16445
290 0.549996 0.850012 0.550007 7.16445
291 0.549996 0.949992 0.450002 7.16445
292 0.449991 0.849991 0.649996 7.16445
293 0.450019 0.949996 0.749996 7.16445
294 0.550002 0.850004 0.750013 7.16445
295 0.550011 0.950021 0.649984 7.16445
296 0.450007 0.850012 0.850014 7.16445
297 0.450003 0.950006 0.949991 7.16445
298 0.549995 0.850015 0.950013 7.16445
299 0.549991 0.949996 0.850006 7.16445
300 0.650002 0.0499972 0.0499991 7.16445
301 0.649988 0.149986 0.15001 7.16445
302 0.749979 0.0500285 0.149987 7.16445
303 0.750006 0.149979 0.050001 7.16445
304 0.650002 0.0499991 0.249997 7.16445
305 0.64998 0.149994 0.349982 7.16445
306 0.75 0.0499972 0.350016 7.16445
307 0.74999 0.150017 0.25002 7.16445
308 0.650014 0.049989 0.450019 7.16445
309 0.65001 0.150012 0.55 7.16445
310 0.750005 0.0499959 0.550016 7.16445
311 0.75001 0.149985 0.449989 7.16445
312 0.649993 0.0500029 0.649988 7.16445
313 0.649996 0.149995 0.750008 7.16445
314 0.750024 0.0500006 0.749983 7.16445
315 0.750021 0.150003 0.650017 7.16445
316 0.650007 0.0499845 0.850003 7.16445
317 0.649985 0.150003 0.950004 7.16445
318 0.750001 0.0499876 0.949992 7.16445
319 0.749988 0.150001 0.849989 7.16445
320 0.649992 0.250011 0.05001 7.16445
321 0.649997 0.349997 0.149999 7.16445
322 0.749988 0.250007 0.150005 7.16445
323 0.749999 0.350003 0.050009 7.16445
324 0.649998 0.25001 0.249994 7.16445
325 0.649985 0.350015 0.35001 7.16445
326 0.750016 0.249991 0.349996 7.16445
327 0.750006 0.349988 0.250013 7.16445
328 0.650007 0.250019 0.450005 7.16445
329 0.650003 0.349994 0.549991 7.16445
330 0.750017 0.249986 0.550011 7.16445
331 0.749998 0.349992 0.450006 7.16445
332 0.649986 0.250019 0.650006 7.16445
333 0.650009 0.350006 0.750004 7.16445
334 0.750002 0.249992 0.749993 7.16445
335 0.750015 0.350014 0.650006 7.16445
336 0.649994 0.250002 0.849999 7.16445
337 0.650025 0.350006 0.949986 7.16445
338 0.749989 0.249991 0.949996 7.16445
339 0.750003 0.350009 0.849996 7.16445
340 0.650015 0.450001 0.0500033 7.16445
341 0.650006 0.549997 0.149997 7.16445
342 0.74999 0.449994 0.149993 7.16445
343 0.749994 0.550009 0.0500037 7.16445
344 0.650001 0.450016 0.250001 7.16445
345 0.650005 0.549996 0.350001 7.16445
346 0.750022 0.449986 0.349999 7.16445
347 0.750001 0.550001 0.250019 7.16445
348 0.650002 0.450003 0.449983 7.16445
349 0.649994 0.549996 0.550006 7.16445
350 0.75 0.449991 0.550004 7.16445
351 0.750006 0.550005 0.449995 7.16445
352 0.649982 0.449999 0.650006 7.16445
353 0.649993 0.550007 0.749998 7.16445
354 0.750005 0.450016 0.75001 7.16445
355 0.750014 0.550008 0.650016 7.16445
356 0.649999 0.449991 0.849992 7.16445
357 0.650021 0.549996 0.950006 7.16445
358 0.749997 0.45 0.949981 7.16445
359 0.750009 0.55 0.849994 7.16445
360 0.649998 0.65 0.0500134 7.16445
361 0.649985 0.749991 0.150002 7.16445
362 0.750003 0.650004 0.149983 7.16445
363 0.750011 0.749978 0.05001 7.16445
364 0.65 0.650013 0.249999 7.16445
365 0.650004 0.749998 0.350012 7.16445
366 0.750008 0.649998 0.350002 7.16445
367 0.749995 0.750002 0.25001 7.16445
368 0.649996 0.649994 0.45001 7.16445
369 0.649993 0.749988 0.550006 7.16445
370 0.750015 0.650001 0.550003 7.16445
371 0.750006 0.75 0.449985 7.16445
372 0.65 0.650013 0.650008 7.16445
373 0.650007 0.749999 0.749993 7.16445
374 0.750011 0.650001 0.749991 7.16445
375 0.750012 0.750009 0.650001 7.16445
376 0.649999 0.649995 0.84999 7.16445
377 0.650009 0.749989 0.950011 7.16445
378 0.749996 0.649996 0.949989 7.16445
379 0.750014 0.749997 0.850027 7.16445
380 0.65 0.849998 0.0500215 7.16445
381 0.649997 0.949999 0.150014 7.16445
382 0.749999 0.849986 0.15001 7.16445
383 0.750009 0.949991 0.0500284 7.16445
384 0.650003 0.849989 0.249994 7.16445
385 0.650013 0.949993 0.349991 7.16445
386 0.750005 0.849979 0.350022 7.16445
387 0.750013 0.950002 0.250004 7.16445
388 0.650001 0.849999 0.449992 7.16445
389 0.649998 0.949982 0.549989 7.16445
390 0.750003 0.849994 0.549997 7.16445
391 0.750011 0.949993 0.449997 7.16445
392 0.649996 0.850001 0.649987 7.16445
393 0.650018 0.950019 0.750004 7.16445
394 0.749992 0.849996 0.750005 7.16445
395 0.750031 0.950006 0.649985 7.16445
396 0.649994 0.850007 0.85 7.16445
397 0.649987 0.949994 0.950004 7.16445
398 0.750012 0.850019 0.95 7.16445
399 0.750003 0.949987 0.850003 7.16445
400 0.849965 0.0499916 0.0500029 7.16445
401 0.850003 0.149976 0.149987 7.16445
402 0.949997 0.0500126 0.150007 7.16445
403 0.949994 0.149997 0.0500094 7.16445
404 0.84998 0.0499984 0.250006 7.16445
405 0.849994 0.150013 0.350009 7.16445
406 0.950007 0.0499932 0.350012 7.16445
407 0.949998 0.149997 0.249991 7.16445
408 0.849998 0.0499996 0.450011 7.16445
409 0.849989 0.149994 0.550021 7.16445
410 0.950003 0.0499965 0.550005 7.16445
411 0.949998 0.15 0.450009 7.16445
412 0.849994 0.0500049 0.65 7.16445
413 0.849981 0.150018 0.750011 7.16445
414 0.950009 0.050004 0.749999 7.16445
415 0.94999 0.15001 0.649994 7.16445
416 0.850002 0.0499961 0.850004 7.16445
417 0.849998 0.149994 0.950002 7.16445
418 0.95001 0.050008 0.949998 7.16445
419 0.949996 0.149994 0.850012 7.16445
420 0.849984 0.250009 0.049989 7.16445
421 0.849999 0.350003 0.150003 7.16445
422 0.949999 0.250003 0.149997 7.16445
423 0.950009 0.350001 0.049998 7.16445
424 0.850007 0.250003 0.249995 7.16445
425 0.849992 0.350005 0.349982 7.16445
426 0.950001 0.249992 0.349988 7.16445
427 0.949985 0.349999 0.24999 7.16445
428 0.849994 0.249996 0.449999 7.16445
429 0.849997 0.349991 0.550015 7.16445
430 0.949978 0.250004 0.55001 7.16445
431 0.950017 0.350004 0.450006 7.16445
432 0.850006 0.25001 0.65001 7.16445
433 0.849986 0.349992 0.749991 7.16445
434 0.950003 0.249997 0.749999 7.16445
435 0.949993 0.35 0.650003 7.16445
436 0.850006 0.249984 0.850008 7.16445
437 0.849998 0.349996 0.949978 7.16445
438 0.949997 0.249998 0.949988 7.16445
439 0.950016 0.349988 0.850004 7.16445
440 0.85001 0.45001 0.0499949 7.16445
441 0.849998 0.550022 0.150007 7.16445
442 0.95 0.44999 0.149995 7.16445
443 0.949988 0.550004 0.0499921 7.16445
444 0.850016 0.450003 0.249985 7.16445
445 0.850004 0.550026 0.350006 7.16445
446 0.95 0.450008 0.349973 7.16445
447 0.95 0.549998 0.25001 7.16445
448 0.850005 0.449998 0.449995 7.16445
449 0.850006 0.550013 0.55001 7.16445
450 0.949997 0.449996 0.549999 7.16445
451 0.949998 0.550003 0.449996 7.16445
452 0.849977 0.450014 0.650001 7.16445
453 0.850006 0.549986 0.750007 7.16445
454 0.949997 0.449988 0.750001 7.16445
455 0.949984 0.550002 0.650011 7.16445
456 0.850001 0.450004 0.850003 7.16445
457 0.849992 0.549999 0.949992 7.16445
458 0.949987 0.449973 0.950012 7.16445
459 0.949986 0.550017 0.850002 7.16445
460 0.849994 0.650001 0.0499923 7.16445
461 0.85 0.750002 0.150002 7.16445
462 0.949997 0.649989 0.149995 7.16445
463 0.950008 0.750005 0.050017 7.16445
464 0.85001 0.650023 0.249995 7.16445
465 0.849991 0.750003 0.350008 7.16445
466 0.949994 0.649988 0.350006 7.16445
467 0.950012 0.750002 0.249989 7.16445
468 0.850003 0.649997 0.449978 7.16445
469 0.850001 0.750013 0.549993 7.16445
470 0.950008 0.65 0.549997 7.16445
471 0.950013 0.750012 0.449999 7.16445
472 0.850017 0.650002 0.649992 7.16445
473 0.850013 0.750001 0.750001 7.16445
474 0.950003 0.650006 0.749995 7.16445
475 0.95 0.750012 0.649992 7.16445
476 0.85 0.64999 0.85 7.16445
477 0.849997 0.750008 0.950004 7.16445
478 0.950002 0.649999 0.949996 7.16445
479 0.950008 0.749997 0.849992 7.16445
480 0.850014 0.850011 0.049985 7.16445
481 0.849995 0.950005 0.15001 7.16445
482 0.949994 0.849991 0.149993 7.16445
483 0.950004 0.949996 0.0500116 7.16445
484 0.850006 0.850013 0.249994 7.16445
485 0.850006 0.94999 0.350009 7.16445
486 0.94998 0.849994 0.350006 7.16445
487 0.950004 0.950001 0.250005 7.16445
488 0.850018 0.849995 0.449993 7.16445
489 0.850009 0.950001 0.550001 7.16445
490 0.950004 0.849989 0.549991 7.16445
491 0.94999 0.949999 0.449996 7.16445
492 0.850006 0.849993 0.649989 7.16445
493 0.850002 0.950001 0.749985 7.16445
494 0.949997 0.850002 0.750005 7.16445
495 0.949998 0.94997 0.65001 7.16445
496 0.849986 0.850003 0.849989 7.16445
497 0.850001 0.950018 0.950004 7.16445
498 0.950014 0.85001 0.949993 7.16445
499 0.949999 0.950012 0.850007 7.16445
ITEM: TIMESTEP
0.0001
ITEM: NUMBER OF ATOMS
500
ITEM: BOX BOUNDS pp pp pp
0 1
0 1
0 1
ITEM: ATOMS id x y z E
0 0.049976 0.0499793 0.0500177 7.16445
1 0.0499747 0.150006 0.149994 7.16445