ITEM: TIMESTEP
0
ITEM: NUMBER OF ATOMS
64
ITEM: BOX BOUNDS pp pp pp
0 100
0 100
0 100
ITEM: ATOMS id x y z E
0 12.5 12.5 12.5 0
1 37.5 12.5 12.5 0
2 62.5 12.5 12.5 0
3 87.5 12.5 12.5 0
4 12.5 37.5 12.5 0
5 37.5 37.5 12.5 0
6 62.5 37.5 12.5 0
7 87.5 37.5 12.5 0
8 12.5 62.5 12.5 0
9 37.5 62.5 12.5 0
10 62.5 62.5 12.5 0
11 87.5 62.5 12.5 0
12 12.5 87.5 12.5 0
13 37.5 87.5 12.5 0
14 62.5 87.5 12.5 0
15 87.5 87.5 12.5 0
16 12.5 12.5 37.5 0
17 37.5 12.5 37.5 0
18 62.5 12.5 37.5 0
19 87.5 12.5 37.5 0
20 12.5 37.5 37.5 0
21 37.5 37.5 37.5 0
22 62.5 37.5 37.5 0
23 87.5 37.5 37.5 0
24 12.5 62.5 37.5 0
25 37.5 62.5 37.5 0
26 62.5 62.5 37.5 0
27 87.5 62.5 37.5 0
28 12.5 87.5 37.5 0
29 37.5 87.5 37.5 0
30 62.5 87.5 37.5 0
31 87.5 87.5 37.5 0
32 12.5 12.5 62.5 0
33 37.5 12.5 62.5 0
34 62.5 12.5 62.5 0
35 87.5 12.5 62.5 0
36 12.5 37.5 62.5 0
37 37.5 37.5 62.5 0
38 62.5 37.5 62.5 0
39 87.5 37.5 62.5 0
40 12.5 62.5 62.5 0
41 37.5 62.5 62.5 0
42 62.5 62.5 62.5 0
43 87.5 62.5 62.5 0
44 12.5 87.5 62.5 0
45 37.5 87.5 62.5 0
46 62.5 87.5 62.5 0
47 87.5 87.5 62.5 0
48 12.5 12.5 87.5 0
49 37.5 12.5 87.5 0
50 62.5 12.5 87.5 0
51 87.5 12.5 87.5 0
52 12.5 37.5 87.5 0
53 37.5 37.5 87.5 0
54 62.5 37.5 87.5 0
55 87.5 37.5 87.5 0
56 12.5 62.5 87.5 0
57 37.5 62.5 87.5 0
58 62.5 62.5 87.5 0
59 87.5 62.5 87.5 0
60 12.5 87.5 87.5 0
61 37.5 87.5 87.5 0
62 62.5 87.5 87.5 0
63 87.5 87.5 87.5 0
ITEM: TIMESTEP
0
ITEM: NUMBER OF ATOMS
64
ITEM: BOX BOUNDS pp pp pp
0 100
0 100
0 100
ITEM: ATOMS id x y z E
0 12.5 12.5001 12.5002 -289.848
1 37.5 12.5 12.5 -289.848
2 62.5 12.5001 12.5 -289.848
3 87.5 12.5002 12.5 -289.848
4 12.5001 37.5 12.4998 -289.848
5 37.5 37.5 12.5001 -289.848
6 62.5 37.5 12.5001 -289.848
7 87.5 37.5 12.5 -289.848
8 12.5 62.5 12.4999 -289.848
9 37.5 62.4996 12.5001 -289.848
10 62.5 62.5 12.4999 -289.848
11 87.5 62.5 12.5001 -289.848
12 12.4999 87.5 12.5 -289.848
13 37.5 87.5 12.5 -289.848
14 62.5 87.5 12.5 -289.848
15 87.5 87.5 12.4999 -289.848
16 12.5 12.5 37.5 -289.848
17 37.5 12.5001 37.5 -289.848
18 62.5 12.4999 37.5 -289.848
19 87.5 12.5001 37.5 -289.848
20 12.4999 37.5 37.5 -289.848
21 37.5 37.5 37.5 -289.848
22 62.5 37.5 37.5 -289.848
23 87.5 37.5 37.5 -289.848
24 12.5001 62.5 37.5 -289.848
25 37.5 62.4996 37.5 -289.848
26 62.5 62.5 37.5 -289.848
27 87.5 62.5 37.5 -289.848
28 12.5001 87.5 37.5 -289.848
29 37.5 87.5 37.5 -289.848
30 62.5 87.5 37.5 -289.848
31 87.5 87.5 37.5 -289.848
32 12.5 12.4999 62.5 -289.848
33 37.5 12.5 62.5 -289.848
34 62.5 12.5002 62.4996 -289.848
35 87.5 12.5001 62.5 -289.848
36 12.5 37.5 62.5 -289.848
37 37.5 37.5 62.5 -289.848
38 62.5 37.5 62.5 -289.848
39 87.5 37.5 62.5 -289.848
40 12.5 62.5 62.5 -289.848
41 37.5 62.5 62.5 -289.848
42 62.5 62.5 62.5 -289.848
43 87.5 62.5 62.5 -289.848
44 12.4999 87.5 62.5 -289.848
45 37.5 87.5 62.5 -289.848
46 62.5 87.5 62.5 -289.848
47 87.5 87.5 62.5 -289.848
48 12.5001 12.4999 87.5 -289.848
49 37.5 12.4999 87.5 -289.848
50 62.5 12.5001 87.5 -289.848
51 87.5 12.4998 87.5 -289.848
52 12.5001 37.5 87.5 -289.848
53 37.5 37.5 87.5 -289.848
54 62.5 37.5 87.5 -289.848
55 87.5 37.5 87.5 -289.848
56 12.5001 62.5 87.5 -289.848
57 37.5 62.5 87.5 -289.848
58 62.5 62.5 87.5 -289.848
59 87.5 62.5 87.5 -289.848
60 12.4999 87.5 87.5 -289.848
61 37.5 87.5 87.5 -289.848
62 62.5 87.5 87.5 -289.848
63 87.5 87.5 87.5 -289.848
ITEM: TIMESTEP
0.0001
ITEM: NUMBER OF ATOMS
64
ITEM: BOX BOUNDS pp pp pp
0 100
0 100
0 100
ITEM: ATOMS id x y z E
0 12.5 12.5002 12.5004 -289.848
1 37.5 12.5 12.5 -289.848
2 62.5 12.5002 12.5 -289.848
3 87.5 12.5004 12.5 -289.848
4 12.5002 37.5 12.4996 -289.848
5 37.5 37.5 12.5002 -289.848
6 62.5 37.5 12.5002 -289.848
7 87.5 37.5 12.5 -289.848
8 12.5 62.5 12.4998 -289.848
9 37.5 62.4992 12.5002 -289.848
10 62.5 62.5 12.4998 -289.848
11 87.5 62.5 12.5002 -289.848
12 12.4998 87.5 12.5 -289.848
13 37.5 87.5 12.5 -289.848
14 62.5 87.5 12.5 -289.848
15 87.5 87.5 12.4998 -289.848
16 12.5 12.5 37.5 -289.848
17 37.5 12.5002 37.5 -289.848
18 62.5 12.4998 37.5 -289.848
19 87.5 12.5002 37.5 -289.848
20 12.4998 37.5 37.5 -289.848
21 37.5 37.5 37.5 -289.848
22 62.5 37.5 37.5 -289.848
23 87.5 37.5 37.5 -289.848
24 12.5002 62.5 37.5 -289.848
25 37.5 62.4992 37.5 -289.848
26 62.5 62.5 37.5 -289.848
27 87.5 62.5 37.5 -289.848
28 12.5002 87.5 37.5 -289.848
29 37.5 87.5 37.5 -289.848
30 62.5 87.5 37.5 -289.848
31 87.5 87.5 37.5 -289.848
32 12.5 12.4998 62.5 -289.848
33 37.5 12.5 62.5 -289.848
34 62.5 12.5004 62.4992 -289.848
35 87.5 12.5002 62.5 -289.848
36 12.5 37.5 62.5 -289.848
37 37.5 37.5 62.5 -289.848
38 62.5 37.5 62.5 -289.848
39 87.5 37.5 62.5 -289.848
40 12.5 62.5 62.5 -289.848
41 37.5 62.5 62.5 -289.848
42 62.5 62.5 62.5 -289.848
43 87.5 62.5 62.5 -289.848
44 12.4998 87.5 62.5 -289.848
45 37.5 87.5 62.5 -289.848
46 62.5 87.5 62.5 -289.848
47 87.5 87.5 62.5 -289.848
48 12.5002 12.4998 87.5 -289.848
49 37.5 12.4998 87.5 -289.848
50 62.5 12.5002 87.5 -289.848
51 87.5 12.4996 87.5 -289.848
52 12.5002 37.5 87.5 -289.848
53 37.5 37.5 87.5 -289.848
54 62.5 37.5 87.5 -289.848
55 87.5 37.5 87.5 -289.848
56 12.5002 62.5 87.5 -289.848
57 37.5 62.5 87.5 -289.848
58 62.5 62.5 87.5 -289.848
59 87.5 62.5 87.5 -289.848
60 12.4998 87.5 87.5 -289.848
61 37.5 87.5 87.5 -289.848
62 62.5 87.5 87.5 -289.848
63 87.5 87.5 87.5 -289.848
ITEM: TIMESTEP
0.0002
ITEM: NUMBER OF ATOMS
64
ITEM: BOX BOUNDS pp pp pp
0 100
0 100
0 100
ITEM: ATOMS id x y z E
0 12.5 12.5003 12.5006 -289.849
1 37.5 12.5 12.5 -289.849
2 62.5 12.5003 12.5 -289.849
3 87.5 12.5006 12.5 -289.849
4 12.5003 37.5 12.4994 -289.849
5 37.5 37.5 12.5003 -289.849
6 62.5 37.5 12.5003 -289.849
7 87.5 37.5 12.5 -289.849
8 12.5 62.5 12.4997 -289.849
9 37.5 62.4989 12.5003 -289.849
10 62.5 62.5 12.4997 -289.849
11 87.5 62.5 12.5003 -289.849
12 12.4997 87.5 12.5 -289.849
13 37.5 87.5 12.5 -289.849
14 62.5 87.5 12.5 -289.849
15 87.5 87.5 12.4997 -289.849
16 12.5 12.5 37.5 -289.849
17 37.5 12.5003 37.5 -289.849
18 62.5 12.4997 37.5 -289.849
19 87.5 12.5003 37.5 -289.849
20 12.4997 37.5 37.5 -289.849
21 37.5 37.5 37.5 -289.849
22 62.5 37.5 37.5 -289.849
23 87.5 37.5 37.5 -289.849
24 12.5003 62.5 37.5 -289.849
25 37.5 62.4989 37.5 -289.849
26 62.5 62.5 37.5 -289.849
27 87.5 62.5 37.5 -289.849
28 12.5003 87.5 37.5 -289.849
29 37.5 87.5 37.5 -289.849
30 62.5 87.5 37.5 -289.849
31 87.5 87.5 37.5 -289.849
32 12.5 12.4997 62.5 -289.849
33 37.5 12.5 62.5 -289.849
34 62.5 12.5006 62.4989 -289.849
35 87.5 12.5003 62.5 -289.849
36 12.5 37.5 62.5 -289.849
37 37.5 37.5 62.5 -289.849
38 62.5 37.5 62.5 -289.849
39 87.5 37.5 62.5 -289.849
40 12.5 62.5 62.5 -289.849
41 37.5 62.5 62.5 -289.849
42 62.5 62.5 62.5 -289.849
43 87.5 62.5 62.5 -289.849
44 12.4997 87.5 62.5 -289.849
45 37.5 87.5 62.5 -289.849
46 62.5 87.5 62.5 -289.849
47 87.5 87.5 62.5 -289.849
48 12.5003 12.4997 87.5 -289.849
49 37.5 12.4997 87.5 -289.849
50 62.5 12.5003 87.5 -289.849
51 87.5 12.4994 87.5 -289.849
52 12.5003 37.5 87.5 -289.849
53 37.5 37.5 87.5 -289.849
54 62.5 37.5 87.5 -289.849
55 87.5 37.5 87.5 -289.849
56 12.5003 62.5 87.5 -289.849
57 37.5 62.5 87.5 -289.849
58 62.5 62.5 87.5 -289.849
59 87.5 62.5 87.5 -289.849
60 12.4997 87.5 87.5 -289.849
61 37.5 87.5 87.5 -289.849
62 62.5 87.5 87.5 -289.849
63 87.5 87.5 87.5 -289.849
ITEM: TIMESTEP
0.0003
ITEM: NUMBER OF ATOMS
64
ITEM: BOX BOUNDS pp pp pp
0 100
0 100
0 100
ITEM: ATOMS id x y z E
0 12.5 12.5004 12.5008 -289.848
1 37.5 12.5 12.5 -289.848
2 62.5 12.5004 12.5 -289.848
3 87.5 12.5008 12.5 -289.848
4 12.5004 37.5 12.4992 -289.848
5 37.5 37.5 12.5004 -289.848
6 62.5 37.5 12.5004 -289.848
7 87.5 37.5 12.5 -289.848
8 12.5 62.5 12.4996 -289.848
9 37.5 62.4985 12.5004 -289.848
10 62.5 62.5 12.4996 -289.848
11 87.5 62.5 12.5004 -289.848
12 12.4996 87.5 12.5 -289.848
13 37.5 87.5 12.5 -289.848
14 62.5 87.5 12.5 -289.848
15 87.5 87.5 12.4996 -289.848
16 12.5 12.5 37.5 -289.848
17 37.5 12.5004 37.5 -289.848
18 62.5 12.4996 37.5 -289.848
19 87.5 12.5004 37.5 -289.848
20 12.4996 37.5 37.5 -289.848
21 37.5 37.5 37.5 -289.848
22 62.5 37.5 37.5 -289.848
23 87.5 37.5 37.5 -289.848
24 12.5004 62.5 37.5 -289.848
25 37.5 62.4985 37.5 -289.848
26 62.5 62.5 37.5 -289.848
27 87.5 62.5 37.5 -289.848
28 12.5004 87.5 37.5 -289.848
29 37.5 87.5 37.5 -289.848
30 62.5 87.5 37.5 -289.848
31 87.5 87.5 37.5 -289.848
32 12.5 12.4996 62.5 -289.848
33 37.5 12.5 62.5 -289.848
34 62.5 12.5008 62.4985 -289.848
35 87.5 12.5004 62.5 -289.848
36 12.5 37.5 62.5 -289.848
37 37.5 37.5 62.5 -289.848
38 62.5 37.5 62.5 -289.848
39 87.5 37.5 62.5 -289.848
40 12.5 62.5 62.5 -289.848
41 37.5 62.5 62.5 -289.848
42 62.5 62.5 62.5 -289.848
43 87.5 62.5 62.5 -289.848
44 12.4996 87.5 62.5 -289.848
45 37.5 87.5 62.5 -289.848
46 62.5 87.5 62.5 -289.848
47 87.5 87.5 62.5 -289.848
48 12.5004 12.4996 87.5 -289.848
49 37.5 12.4996 87.5 -289.848
50 62.5 12.5004 87.5 -289.848
51 87.5 12.4992 87.5 -289.848
52 12.5004 37.5 87.5 -289.848
53 37.5 37.5 87.5 -289.848
54 62.5 37.5 87.5 -289.848
55 87.5 37.5 87.5 -289.848
56 12.5004 62.5 87.5 -289.848
57 37.5 62.5 87.5 -289.848
58 62.5 62.5 87.5 -289.848
59 87.5 62.5 87.5 -289.848
60 12.4996 87.5 87.5 -289.848
61 37.5 87.5 87.5 -289.848
62 62.5 87.5 87.5 -289.848
63 87.5 87.5 87.5 -289.848
ITEM: TIMESTEP
0.0004
ITEM: NUMBER OF ATOMS
64
ITEM: BOX BOUNDS pp pp pp
0 100
0 100
0 100
ITEM: ATOMS id x y z E
0 12.5 12.5005 12.501 -289.848
1 37.5 12.5 12.5 -289.848
2 62.5 12.5005 12.5 -289.848
3 87.5 12.501 12.5 -289.848
4 12.5005 37.5 12.499 -289.848
5 37.5 37.5 12.5005 -289.848
6 62.5 37.5 12.5005 -289.848
7 87.5 37.5 12.5 -289.848
8 12.5 62.5 12.4995 -289.848
9 37.5 62.4981 12.5005 -289.848
10 62.5 62.5 12.4995 -289.848
11 87.5 62.5 12.5005 -289.848
12 12.4995 87.5 12.5 -289.848
13 37.5 87.5 12.5 -289.848
14 62.5 87.5 12.5 -289.848
15 87.5 87.5 12.4995 -289.848
16 12.5 12.5 37.5 -289.848
17 37.5 12.5005 37.5 -289.848
18 62.5 12.4995 37.5 -289.848
19 87.5 12.5005 37.5 -289.848
20 12.4995 37.5 37.5 -289.848
21 37.5 37.5 37.5 -289.848
22 62.5 37.5 37.5 -289.848
23 87.5 37.5 37.5 -289.848
24 12.5005 62.5 37.5 -289.848
25 37.5 62.4981 37.5 -289.848
26 62.5 62.5 37.5 -289.848
27 87.5 62.5 37.5 -289.848
28 12.5005 87.5 37.5 -289.848
29 37.5 87.5 37.5 -289.848
30 62.5 87.5 37.5 -289.848
31 87.5 87.5 37.5 -289.848
32 12.5 12.4995 62.5 -289.848
33 37.5 12.5 62.5 -289.848
34 62.5 12.501 62.4981 -289.848
35 87.5 12.5005 62.5 -289.848
36 12.5 37.5 62.5 -289.848
37 37.5 37.5 62.5 -289.848
38 62.5 37.5 62.5 -289.848
39 87.5 37.5 62.5 -289.848
40 12.5 62.5 62.5 -289.848
41 37.5 62.5 62.5 -289.848
42 62.5 62.5 62.5 -289.848
43 87.5 62.5 62.5 -289.848
44 12.4995 87.5 62.5 -289.848
45 37.5 87.5 62.5 -289.848
46 62.5 87.5 62.5 -289.848
47 87.5 87.5 62.5 -289.848
48 12.5005 12.4995 87.5 -289.848
49 37.5 12.4995 87.5 -289.848
50 62.5 12.5005 87.5 -289.848
51 87.5 12.499 87.5 -289.848
52 12.5005 37.5 87.5 -289.848
53 37.5 37.5 87.5 -289.848
54 62.5 37.5 87.5 -289.848
55 87.5 37.5 87.5 -289.848
56 12.5005 62.5 87.5 -289.848
57 37.5 62.5 87.5 -289.848
58 62.5 62.5 87.5 -289.848
59 87.5 62.5 87.5 -289.848
60 12.4995 87.5 87.5 -289.848
61 37.5 87.5 87.5 -289.848
62 62.5 87.5 87.5 -289.848
63 87.5 87.5 87.5 -289.848
ITEM: TIMESTEP
0.0005
ITEM: NUMBER OF ATOMS
64
ITEM: BOX BOUNDS pp pp pp
0 100
0 100
0 100
ITEM: ATOMS id x y z E
0 12.5 12.5006 12.5011 -289.848
1 37.5 12.5 12.5 -289.848
2 62.5 12.5006 12.5 -289.848
3 87.5 12.5011 12.5 -289.848
4 12.5006 37.5 12.4989 -289.848
5 37.5 37.5 12.5006 -289.848
6 62.5 37.5 12.5006 -289.848
7 87.5 37.5 12.5 -289.848
8 12.5 62.5 12.4994 -289.848
9 37.5 62.4977 12.5006 -289.848
10 62.5 62.5 12.4994 -289.848
11 87.5 62.5 12.5006 -289.848
12 12.4994 87.5 12.5 -289.848
13 37.5 87.5 12.5 -289.848
14 62.5 87.5 12.5 -289.848
15 87.5 87.5 12.4994 -289.848
16 12.5 12.5 37.5 -289.848
17 37.5 12.5006 37.5 -289.848
18 62.5 12.4994 37.5 -289.848
19 87.5 12.5006 37.5 -289.848
20 12.4994 37.5 37.5 -289.848
21 37.5 37.5 37.5 -289.848
22 62.5 37.5 37.5 -289.848
23 87.5 37.5 37.5 -289.848
24 12.5006 62.5 37.5 -289.848
25 37.5 62.4977 37.5 -289.848
26 62.5 62.5 37.5 -289.848
27 87.5 62.5 37.5 -289.848
28 12.5006 87.5 37.5 -289.848
29 37.5 87.5 37.5 -289.848
30 62.5 87.5 37.5 -289.848
31 87.5 87.5 37.5 -289.848
32 12.5 12.4994 62.5 -289.848
33 37.5 12.5 62.5 -289.848
34 62.5 12.5011 62.4977 -289.848
35 87.5 12.5006 62.5 -289.848
36 12.5 37.5 62.5 -289.848
37 37.5 37.5 62.5 -289.848
38 62.5 37.5 62.5 -289.848
39 87.5 37.5 62.5 -289.848
40 12.5 62.5 62.5 -289.848
41 37.5 62.5 62.5 -289.848
42 62.5 62.5 62.5 -289.848
43 87.5 62.5 62.5 -289.848
44 12.4994 87.5 62.5 -289.848
45 37.5 87.5 62.5 -289.848
46 62.5 87.5 62.5 -289.848
47 87.5 87.5 62.5 -289.848
48 12.5006 12.4994 87.5 -289.848
49 37.5 12.4994 87.5 -289.848
50 62.5 12.5006 87.5 -289.848
51 87.5 12.4989 87.5 -289.848
52 12.5006 37.5 87.5 -289.848
53 37.5 37.5 87.5 -289.848
54 62.5 37.5 87.5 -289.848
55 87.5 37.5 87.5 -289.848
56 12.5006 62.5 87.5 -289.848
57 37.5 62.5 87.5 -289.848
58 62.5 62.5 87.5 -289.848
59 87.5 62.5 87.5 -289.848
60 12.4994 87.5 87.5 -289.848
61 37.5 87.5 87.5 -289.848
62 62.5 87.5 87.5 -289.848
63 87.5 87.5 87.5 -289.848
ITEM: TIMESTEP
0.0006
ITEM: NUMBER OF ATOMS
64
ITEM: BOX BOUNDS pp pp pp
0 100
0 100
0 100
ITEM: ATOMS id x y z E
0 12.5 12.5007 12.5013 -289.848
1 37.5 12.5 12.5 -289.848
2 62.5 12.5007 12.5 -289.848
3 87.5 12.5013 12.5 -289.848
4 12.5007 37.5 12.4987 -289.848
5 37.5 37.5 12.5007 -289.848
6 62.5 37.5 12.5007 -289.848
7 87.5 37.5 12.5 -289.848
8 12.5 62.5 12.4993 -289.848
9 37.5 62.4973 12.5007 -289.848
10 62.5 62.5 12.4993 -289.848
11 87.5 62.5 12.5007 -289.848
12 12.4993 87.5 12.5 -289.848
13 37.5 87.5 12.5 -289.848
14 62.5 87.5 12.5 -289.848
15 87.5 87.5 12.4993 -289.848
16 12.5 12.5 37.5 -289.848
17 37.5 12.5007 37.5 -289.848
18 62.5 12.4993 37.5 -289.848
19 87.5 12.5007 37.5 -289.848
20 12.4993 37.5 37.5 -289.848
21 37.5 37.5 37.5 -289.848
22 62.5 37.5 37.5 -289.848
23 87.5 37.5 37.5 -289.848
24 12.5007 62.5 37.5 -289.848
25 37.5 62.4973 37.5 -289.848
26 62.5 62.5 37.5 -289.848
27 87.5 62.5 37.5 -289.848
28 12.5007 87.5 37.5 -289.848
29 37.5 87.5 37.5 -289.848
30 62.5 87.5 37.5 -289.848
31 87.5 87.5 37.5 -289.848
32 12.5 12.4993 62.5 -289.848
33 37.5 12.5 62.5 -289.848
34 62.5 12.5013 62.4973 -289.848
35 87.5 12.5007 62.5 -289.848
36 12.5 37.5 62.5 -289.848
37 37.5 37.5 62.5 -289.848
38 62.5 37.5 62.5 -289.848
39 87.5 37.5 62.5 -289.848
40 12.5 62.5 62.5 -289.848
41 37.5 62.5 62.5 -289.848
42 62.5 62.5 62.5 -289.848
43 87.5 62.5 62.5 -289.848
44 12.4993 87.5 62.5 -289.848
45 37.5 87.5 62.5 -289.848
46 62.5 87.5 62.5 -289.848
47 87.5 87.5 62.5 -289.848
48 12.5007 12.4993 87.5 -289.848
49 37.5 12.4993 87.5 -289.848
50 62.5 12.5007 87.5 -289.848
51 87.5 12.4987 87.5 -289.848
52 12.5007 37.5 87.5 -289.848
53 37.5 37.5 87.5 -289.848
54 62.5 37.5 87.5 -289.848
55 87.5 37.5 87.5 -289.848
56 12.5007 62.5 87.5 -289.848
57 37.5 62.5 87.5 -289.848
58 62.5 62.5 87.5 -289.848
59 87.5 62.5 87.5 -289.848
60 12.4993 87.5 87.5 -289.848
61 37.5 87.5 87.5 -289.848
62 62.5 87.5 87.5 -289.848
63 87.5 87.5 87.5 -289.848
ITEM: TIMESTEP
0.0007
ITEM: NUMBER OF ATOMS
64
ITEM: BOX BOUNDS pp pp pp
0 100
0 100
0 100
ITEM: ATOMS id x y z E
0 12.5 12.5008 12.5015 -289.847
1 37.5 12.5 12.5 -289.847
2 62.5 12.5008 12.5 -289.847
3 87.5 12.5015 12.5 -289.847
4 12.5008 37.5 12.4985 -289.847
5 37.5 37.5 12.5008 -289.847
6 62.5 37.5 12.5008 -289.847
7 87.5 37.5 12.5 -289.847
8 12.5 62.5 12.4992 -289.847
9 37.5 62.4969 12.5008 -289.847
10 62.5 62.5 12.4992 -289.847
11 87.5 62.5 12.5008 -289.847
12 12.4992 87.5 12.5 -289.847
13 37.5 87.5 12.5 -289.847
14 62.5 87.5 12.5 -289.847
15 87.5 87.5 12.4992 -289.847
16 12.5 12.5 37.5 -289.847
17 37.5 12.5008 37.5 -289.847
18 62.5 12.4992 37.5 -289.847
19 87.5 12.5008 37.5 -289.847
20 12.4992 37.5 37.5 -289.847
21 37.5 37.5 37.5 -289.847
22 62.5 37.5 37.5 -289.847
23 87.5 37.5 37.5 -289.847
24 12.5008 62.5 37.5 -289.847
25 37.5 62.4969 37.5 -289.847
26 62.5 62.5 37.5 -289.847
27 87.5 62.5 37.5 -289.847
28 12.5008 87.5 37.5 -289.847
29 37.5 87.5 37.5 -289.847
30 62.5 87.5 37.5 -289.847
31 87.5 87.5 37.5 -289.847
32 12.5 12.4992 62.5 -289.847
33 37.5 12.5 62.5 -289.847
34 62.5 12.5015 62.4969 -289.847
35 87.5 12.5008 62.5 -289.847
36 12.5 37.5 62.5 -289.847
37 37.5 37.5 62.5 -289.847
38 62.5 37.5 62.5 -289.847
39 87.5 37.5 62.5 -289.847
40 12.5 62.5 62.5 -289.847
41 37.5 62.5 62.5 -289.847
42 62.5 62.5 62.5 -289.847
43 87.5 62.5 62.5 -289.847
44 12.4992 87.5 62.5 -289.847
45 37.5 87.5 62.5 -289.847
46 62.5 87.5 62.5 -289.847
47 87.5 87.5 62.5 -289.847
48 12.5008 12.4992 87.5 -289.847
49 37.5 12.4992 87.5 -289.847
50 62.5 12.5008 87.5 -289.847
51 87.5 12.4985 87.5 -289.847
52 12.5008 37.5 87.5 -289.847
53 37.5 37.5 87.5 -289.847
54 62.5 37.5 87.5 -289.847
55 87.5 37.5 87.5 -289.847
56 12.5008 62.5 87.5 -289.847
57 37.5 62.5 87.5 -289.847
58 62.5 62.5 87.5 -289.847
59 87.5 62.5 87.5 -289.847
60 12.4992 87.5 87.5 -289.847
61 37.5 87.5 87.5 -289.847
62 62.5 87.5 87.5 -289.847
63 87.5 87.5 87.5 -289.847
ITEM: TIMESTEP
0.0008
ITEM: NUMBER OF ATOMS
64
ITEM: BOX BOUNDS pp pp pp
0 100
0 100
0 100
ITEM: ATOMS id x y z E
0 12.5 12.5009 12.5017 -289.847
1 37.5 12.5 12.5 -289.847
2 62.5 12.5009 12.5 -289.847
3 87.5 12.5017 12.5 -289.847
4 12.5009 37.5 12.4983 -289.847
5 37.5 37.5 12.5009 -289.847
6 62.5 37.5 12.5009 -289.847
7 87.5 37.5 12.5 -289.847
8 12.5 62.5 12.4991 -289.847
9 37.5 62.4966 12.5009 -289.847
10 62.5 62.5 12.4991 -289.847
11 87.5 62.5 12.5009 -289.847
12 12.4991 87.5 12.5 -289.847
13 37.5 87.5 12.5 -289.847
14 62.5 87.5 12.5 -289.847
15 87.5 87.5 12.4991 -289.847
16 12.5 12.5 37.5 -289.847
17 37.5 12.5009 37.5 -289.847
18 62.5 12.4991 37.5 -289.847
19 87.5 12.5009 37.5 -289.847
20 12.4991 37.5 37.5 -289.847
21 37.5 37.5 37.5 -289.847
22 62.5 37.5 37.5 -289.847
23 87.5 37.5 37.5 -289.847
24 12.5009 62.5 37.5 -289.847
25 37.5 62.4966 37.5 -289.847
26 62.5 62.5 37.5 -289.847
27 87.5 62.5 37.5 -289.847
28 12.5009 87.5 37.5 -289.847
29 37.5 87.5 37.5 -289.847
30 62.5 87.5 37.5 -289.847
31 87.5 87.5 37.5 -289.847
32 12.5 12.4991 62.5 -289.847
33 37.5 12.5 62.5 -289.847
34 62.5 12.5017 62.4966 -289.847
35 87.5 12.5009 62.5 -289.847
36 12.5 37.5 62.5 -289.847
37 37.5 37.5 62.5 -289.847
38 62.5 37.5 62.5 -289.847
39 87.5 37.5 62.5 -289.847
40 12.5 62.5 62.5 -289.847
41 37.5 62.5 62.5 -289.847
42 62.5 62.5 62.5 -289.847
43 87.5 62.5 62.5 -289.847
44 12.4991 87.5 62.5 -289.847
45 37.5 87.5 62.5 -289.847
46 62.5 87.5 62.5 -289.847
47 87.5 87.5 62.5 -289.847
48 12.5009 12.4991 87.5 -289.847
49 37.5 12.4991 87.5 -289.847
50 62.5 12.5009 87.5 -289.847
51 87.5 12.4983 87.5 -289.847
52 12.5009 37.5 87.5 -289.847
53 37.5 37.5 87.5 -289.847
54 62.5 37.5 87.5 -289.847
55 87.5 37.5 87.5 -289.847
56 12.5009 62.5 87.5 -289.847
57 37.5 62.5 87.5 -289.847
58 62.5 62.5 87.5 -289.847
59 87.5 62.5 87.5 -289.847
60 12.4991 87.5 87.5 -289.847
61 37.5 87.5 87.5 -289.847
62 62.5 87.5 87.5 -289.847
63 87.5 87.5 87.5 -289.847
ITEM: TIMESTEP
0.0009
ITEM: NUMBER OF ATOMS
64
ITEM: BOX BOUNDS pp pp pp
0 100
0 100
0 100
ITEM: ATOMS id x y z E
0 12.5 12.501 12.5019 -289.847
1 37.5 12.5 12.5 -289.847
2 62.5 12.501 12.5 -289.847
3 87.5 12.5019 12.5 -289.847
4 12.501 37.5 12.4981 -289.847
5 37.5 37.5 12.501 -289.847
6 62.5 37.5 12.501 -289.847
7 87.5 37.5 12.5 -289.847
8 12.5 62.5 12.499 -289.847
9 37.5 62.4962 12.501 -289.847
10 62.5 62.5 12.499 -289.847
11 87.5 62.5 12.501 -289.847
12 12.499 87.5 12.5 -289.847
13 37.5 87.5 12.5 -289.847
14 62.5 87.5 12.5 -289.847
15 87.5 87.5 12.499 -289.847
16 12.5 12.5 37.5 -289.847
17 37.5 12.501 37.5 -289.847
18 62.5 12.499 37.5 -289.847
19 87.5 12.501 37.5 -289.847
20 12.499 37.5 37.5 -289.847
21 37.5 37.5 37.5 -289.847
22 62.5 37.5 37.5 -289.847
23 87.5 37.5 37.5 -289.847
24 12.501 62.5 37.5 -289.847
25 37.5 62.4962 37.5 -289.847
26 62.5 62.5 37.5 -289.847
27 87.5 62.5 37.5 -289.847
28 12.501 87.5 37.5 -289.847
29 37.5 87.5 37.5 -289.847
30 62.5 87.5 37.5 -289.847
31 87.5 87.5 37.5 -289.847
32 12.5 12.499 62.5 -289.847
33 37.5 12.5 62.5 -289.847
34 62.5 12.5019 62.4962 -289.847
35 87.5 12.501 62.5 -289.847
36 12.5 37.5 62.5 -289.847
37 37.5 37.5 62.5 -289.847
38 62.5 37.5 62.5 -289.847
39 87.5 37.5 62.5 -289.847
40 12.5 62.5 62.5 -289.847
41 37.5 62.5 62.5 -289.847
42 62.5 62.5 62.5 -289.847
43 87.5 62.5 62.5 -289.847
44 12.499 87.5 62.5 -289.847
45 37.5 87.5 62.5 -289.847
46 62.5 87.5 62.5 -289.847
47 87.5 87.5 62.5 -289.847
48 12.501 12.499 87.5 -289.847
49 37.5 12.499 87.5 -289.847
50 62.5 12.501 87.5 -289.847
51 87.5 12.4981 87.5 -289.847
52 12.501 37.5 87.5 -289.847
53 37.5 37.5 87.5 -289.847
54 62.5 37.5 87.5 -289.847
55 87.5 37.5 87.5 -289.847
56 12.501 62.5 87.5 -289.847
57 37.5 62.5 87.5 -289.847
58 62.5 62.5 87.5 -289.847
59 87.5 62.5 87.5 -289.847
60 12.499 87.5 87.5 -289.847
61 37.5 87.5 87.5 -289.847
62 62.5 87.5 87.5 -289.847
63 87.5 87.5 87.5 -289.847
ITEM: TIMESTEP
0.001
ITEM: NUMBER OF ATOMS
64
ITEM: BOX BOUNDS pp pp pp
0 100
0 100
0 100
ITEM: ATOMS id x y z E
0 12.5 12.501 12.5021 -289.846
1 37.5 12.5 12.5 -289.846
2 62.5 12.501 12.5 -289.846
3 87.5 12.5021 12.5 -289.846
4 12.501 37.5 12.4979 -289.846
5 37.5 37.5 12.501 -289.846
6 62.5 37.5 12.501 -289.846
7 87.5 37.5 12.5 -289.846
8 12.5 62.5 12.499 -289.846
9 37.5 62.4958 12.501 -289.846
10 62.5 62.5 12.499 -289.846
11 87.5 62.5 12.501 -289.846
12 12.499 87.5 12.5 -289.846
13 37.5 87.5 12.5 -289.846
14 62.5 87.5 12.5 -289.846
15 87.5 87.5 12.499 -289.846
16 12.5 12.5 37.5 -289.846
17 37.5 12.501 37.5 -289.846
18 62.5 12.499 37.5 -289.846
19 87.5 12.501 37.5 -289.846
20 12.499 37.5 37.5 -289.846
21 37.5 37.5 37.5 -289.846
22 62.5 37.5 37.5 -289.846
23 87.5 37.5 37.5 -289.846
24 12.501 62.5 37.5 -289.846
25 37.5 62.4958 37.5 -289.846
26 62.5 62.5 37.5 -289.846
27 87.5 62.5 37.5 -289.846
28 12.501 87.5 37.5 -289.846
29 37.5 87.5 37.5 -289.846
30 62.5 87.5 37.5 -289.846
31 87.5 87.5 37.5 -289.846
32 12.5 12.499 62.5 -289.846
33 37.5 12.5 62.5 -289.846
34 62.5 12.5021 62.4958 -289.846
35 87.5 12.501 62.5 -289.846
36 12.5 37.5 62.5 -289.846
37 37.5 37.5 62.5 -289.846
38 62.5 37.5 62.5 -289.846
39 87.5 37.5 62.5 -289.846
40 12.5 62.5 62.5 -289.846
41 37.5 62.5 62.5 -289.846
42 62.5 62.5 62.5 -289.846
43 87.5 62.5 62.5 -289.846
44 12.499 87.5 62.5 -289.846
45 37.5 87.5 62.5 -289.846
46 62.5 87.5 62.5 -289.846
47 87.5 87.5 62.5 -289.846
48 12.501 12.499 87.5 -289.846
49 37.5 12.499 87.5 -289.846
50 62.5 12.501 87.5 -289.846
51 87.5 12.4979 87.5 -289.846
52 12.501 37.5 87.5 -289.846
53 37.5 37.5 87.5 -289.846
54 62.5 37.5 87.5 -289.846
55 87.5 37.5 87.5 -289.846
56 12.501 62.5 87.5 -289.846
57 37.5 62.5 87.5 -289.846
58 62.5 62.5 87.5 -289.846
59 87.5 62.5 87.5 -289.846
60 12.499 87.5 87.5 -289.846
61 37.5 87.5 87.5 -289.846
62 62.5 87.5 87.5 -289.846
63 87.5 87.5 87.5 -289.846
ITEM: TIMESTEP
0.0011
ITEM: NUMBER OF ATOMS
64
ITEM: BOX BOUNDS pp pp pp
0 100
0 100
0 100
ITEM: ATOMS id x y z E
0 12.5 12.5011 12.5023 -289.846
1 37.5 12.5 12.5 -289.846
2 62.5 12.5011 12.5 -289.846
3 87.5 12.5023 12.5 -289.846
4 12.5011 37.5 12.4977 -289.846
5 37.5 37.5 12.5011 -289.846
6 62.5 37.5 12.5011 -289.846
7 87.5 37.5 12.5 -289.846
8 12.5 62.5 12.4989 -289.846
9 37.5 62.4954 12.5011 -289.846
10 62.5 62.5 12.4989 -289.846
11 87.5 62.5 12.5011 -289.846
12 12.4989 87.5 12.5 -289.846
13 37.5 87.5 12.5 -289.846
14 62.5 87.5 12.5 -289.846
15 87.5 87.5 12.4989 -289.846
16 12.5 12.5 37.5 -289.846
17 37.5 12.5011 37.5 -289.846
18 62.5 12.4989 37.5 -289.846
19 87.5 12.5011 37.5 -289.846
20 12.4989 37.5 37.5 -289.846
21 37.5 37.5 37.5 -289.846
22 62.5 37.5 37.5 -289.846
23 87.5 37.5 37.5 -289.846
24 12.5011 62.5 37.5 -289.846
25 37.5 62.4954 37.5 -289.846
26 62.5 62.5 37.5 -289.846
27 87.5 62.5 37.5 -289.846
28 12.5011 87.5 37.5 -289.846
29 37.5 87.5 37.5 -289.846
30 62.5 87.5 37.5 -289.846
31 87.5 87.5 37.5 -289.846
32 12.5 12.4989 62.5 -289.846
33 37.5 12.5 62.5 -289.846
34 62.5 12.5023 62.4954 -289.846
35 87.5 12.5011 62.5 -289.846
36 12.5 37.5 62.5 -289.846
37 37.5 37.5 62.5 -289.846
38 62.5 37.5 62.5 -289.846
39 87.5 37.5 62.5 -289.846
40 12.5 62.5 62.5 -289.846
41 37.5 62.5 62.5 -289.846
42 62.5 62.5 62.5 -289.846
43 87.5 62.5 62.5 -289.846
44 12.4989 87.5 62.5 -289.846
45 37.5 87.5 62.5 -289.846
46 62.5 87.5 62.5 -289.846
47 87.5 87.5 62.5 -289.846
48 12.5011 12.4989 87.5 -289.846
49 37.5 12.4989 87.5 -289.846
50 62.5 12.5011 87.5 -289.846
51 87.5 12.4977 87.5 -289.846
52 12.5011 37.5 87.5 -289.846
53 37.5 37.5 87.5 -289.846
54 62.5 37.5 87.5 -289.846
55 87.5 37.5 87.5 -289.846
56 12.5011 62.5 87.5 -289.846
57 37.5 62.5 87.5 -289.846
58 62.5 62.5 87.5 -289.846
59 87.5 62.5 87.5 -289.846
60 12.4989 87.5 87.5 -289.846
61 37.5 87.5 87.5 -289.846
62 62.5 87.5 87.5 -289.846
63 87.5 87.5 87.5 -289.846
ITEM: TIMESTEP
0.0012
ITEM: NUMBER OF ATOMS
64
ITEM: BOX BOUNDS pp pp pp
0 100
0 100
0 100
ITEM: ATOMS id x y z E
0 12.5 12.5012 12.5025 -289.846
1 37.5 12.5 12.5 -289.846
2 62.5 12.5012 12.5 -289.846
3 87.5 12.5025 12.5 -289.846
4 12.5012 37.5 12.4975 -289.846
5 37.5 37.5 12.5012 -289.846
6 62.5 37.5 12.5012 -289.846
7 87.5 37.5 12.5 -289.846
8 12.5 62.5 12.4988 -289.846
9 37.5 62.495 12.5012 -289.846
10 62.5 62.5 12.4988 -289.846
11 87.5 62.5 12.5012 -289.846
12 12.4988 87.5 12.5 -289.846
13 37.5 87.5 12.5 -289.846
14 62.5 87.5 12.5 -289.846
15 87.5 87.5 12.4988 -289.846
16 12.5 12.5 37.5 -289.846
17 37.5 12.5012 37.5 -289.846
18 62.5 12.4988 37.5 -289.846
19 87.5 12.5012 37.5 -289.846
20 12.4988 37.5 37.5 -289.846
21 37.5 37.5 37.5 -289.846
22 62.5 37.5 37.5 -289.846
23 87.5 37.5 37.5 -289.846
24 12.5012 62.5 37.5 -289.846
25 37.5 62.495 37.5 -289.846
26 62.5 62.5 37.5 -289.846
27 87.5 62.5 37.5 -289.846
28 12.5012 87.5 37.5 -289.846
29 37.5 87.5 37.5 -289.846
30 62.5 87.5 37.5 -289.846
31 87.5 87.5 37.5 -289.846
32 12.5 12.4988 62.5 -289.846
33 37.5 12.5 62.5 -289.846
34 62.5 12.5024 62.495 -289.846
35 87.5 12.5012 62.5 -289.846
36 12.5 37.5 62.5 -289.846
37 37.5 37.5 62.5 -289.846
38 62.5 37.5 62.5 -289.846
39 87.5 37.5 62.5 -289.846
40 12.5 62.5 62.5 -289.846
41 37.5 62.5 62.5 -289.846
42 62.5 62.5 62.5 -289.846
43 87.5 62.5 62.5 -289.846
44 12.4988 87.5 62.5 -289.846
45 37.5 87.5 62.5 -289.846
46 62.5 87.5 62.5 -289.846
47 87.5 87.5 62.5 -289.846
48 12.5012 12.4988 87.5 -289.846
49 37.5 12.4988 87.5 -289.846
50 62.5 12.5012 87.5 -289.846
51 87.5 12.4975 87.5 -289.846
52 12.5012 37.5 87.5 -289.846
53 37.5 37.5 87.5 -289.846
54 62.5 37.5 87.5 -289.846
55 87.5 37.5 87.5 -289.846
56 12.5012 62.5 87.5 -289.846
57 37.5 62.5 87.5 -289.846
58 62.5 62.5 87.5 -289.846
59 87.5 62.5 87.5 -289.846
60 12.4988 87.5 87.5 -289.846
61 37.5 87.5 87.5 -289.846
62 62.5 87.5 87.5 -289.846
63 87.5 87.5 87.5 -289.846
ITEM: TIMESTEP
0.0013
ITEM: NUMBER OF ATOMS
64
ITEM: BOX BOUNDS pp pp pp
0 100
0 100
0 100
ITEM: ATOMS id x y z E
0 12.5 12.5013 12.5027 -289.846
1 37.5 12.5 12.5 -289.846
2 62.5 12.5013 12.5 -289.846
3 87.5 12.5027 12.5 -289.846
4 12.5013 37.5 12.4973 -289.846
5 37.5 37.5 12.5013 -289.846
6 62.5 37.5 12.5013 -289.846
7 87.5 37.5 12.5 -289.846
8 12.5 62.5 12.4987 -289.846
9 37.5 62.4947 12.5013 -289.846
10 62.5 62.5 12.4987 -289.846
11 87.5 62.5 12.5013 -289.846
12 12.4987 87.5 12.5 -289.846
13 37.5 87.5 12.5 -289.846
14 62.5 87.5 12.5 -289.846
15 87.5 87.5 12.4987 -289.846
16 12.5 12.5 37.5 -289.846
17 37.5 12.5013 37.5 -289.846
18 62.5 12.4987 37.5 -289.846
19 87.5 12.5013 37.5 -289.846
20 12.4987 37.5 37.5 -289.846
21 37.5 37.5 37.5 -289.846
22 62.5 37.5 37.5 -289.846
23 87.5 37.5 37.5 -289.846
24 12.5013 62.5 37.5 -289.846
25 37.5 62.4947 37.5 -289.846
26 62.5 62.5 37.5 -289.846
27 87.5 62.5 37.5 -289.846
28 12.5013 87.5 37.5 -289.846
29 37.5 87.5 37.5 -289.846
30 62.5 87.5 37.5 -289.846
31 87.5 87.5 37.5 -289.846
32 12.5 12.4987 62.5 -289.846
33 37.5 12.5 62.5 -289.846
34 62.5 12.5025 62.4947 -289.846
35 87.5 12.5013 62.5 -289.846
36 12.5 37.5 62.5 -289.846
37 37.5 37.5 62.5 -289.846
38 62.5 37.5 62.5 -289.846
39 87.5 37.5 62.5 -289.846
40 12.5 62.5 62.5 -289.846
41 37.5 62.5 62.5 -289.846
42 62.5 62.5 62.5 -289.846
43 87.5 62.5 62.5 -289.846
44 12.4987 87.5 62.5 -289.846
45 37.5 87.5 62.5 -289.846
46 62.5 87.5 62.5 -289.846
47 87.5 87.5 62.5 -289.846
48 12.5013 12.4987 87.5 -289.846
49 37.5 12.4987 87.5 -289.846
50 62.5 12.5013 87.5 -289.846
51 87.5 12.4973 87.5 -289.846
52 12.5013 37.5 87.5 -289.846
53 37.5 37.5 87.5 -289.846
54 62.5 37.5 87.5 -289.846
55 87.5 37.5 87.5 -289.846
56 12.5013 62.5 87.5 -289.846
57 37.5 62.5 87.5 -289.846
58 62.5 62.5 87.5 -289.846
59 87.5 62.5 87.5 -289.846
60 12.4987 87.5 87.5 -289.846
61 37.5 87.5 87.5 -289.846
62 62.5 87.5 87.5 -289.846
63 87.5 87.5 87.5 -289.846
ITEM: TIMESTEP
0.0014
ITEM: NUMBER OF ATOMS
64
ITEM: BOX BOUNDS pp pp pp
0 100
0 100
0 100
ITEM: ATOMS id x y z E
0 12.5 12.5014 12.5029 -289.847
1 37.5 12.5 12.5 -289.847
2 62.5 12.5014 12.5 -289.847
3 87.5 12.5029 12.5 -289.847
4 12.5014 37.5 12.4971 -289.847
5 37.5 37.5 12.5014 -289.847
6 62.5 37.5 12.5014 -289.847
7 87.5 37.5 12.5 -289.847
8 12.5 62.5 12.4986 -289.847
9 37.5 62.4943 12.5014 -289.847
10 62.5 62.5 12.4986 -289.847
11 87.5 62.5 12.5014 -289.847
12 12.4986 87.5 12.5 -289.847
13 37.5 87.5 12.5 -289.847
14 62.5 87.5 12.5 -289.847
15 87.5 87.5 12.4986 -289.847
16 12.5 12.5 37.5 -289.847
17 37.5 12.5014 37.5 -289.847
18 62.5 12.4986 37.5 -289.847
19 87.5 12.5014 37.5 -289.847
20 12.4986 37.5 37.5 -289.847
21 37.5 37.5 37.5 -289.847
22 62.5 37.5 37.5 -289.847
23 87.5 37.5 37.5 -289.847
24 12.5014 62.5 37.5 -289.847
25 37.5 62.4943 37.5 -289.847
26 62.5 62.5 37.5 -289.847
27 87.5 62.5 37.5 -289.847
28 12.5014 87.5 37.5 -289.847
29 37.5 87.5 37.5 -289.847
30 62.5 87.5 37.5 -289.847
31 87.5 87.5 37.5 -289.847
32 12.5 12.4986 62.5 -289.847
33 37.5 12.5 62.5 -289.847
34 62.5 12.5026 62.4943 -289.847
35 87.5 12.5014 62.5 -289.847
36 12.5 37.5 62.5 -289.847
37 37.5 37.5 62.5 -289.847
38 62.5 37.5 62.5 -289.847
39 87.5 37.5 62.5 -289.847
40 12.5 62.5 62.5 -289.847
41 37.5 62.5 62.5 -289.847
42 62.5 62.5 62.5 -289.847
43 87.5 62.5 62.5 -289.847
44 12.4986 87.5 62.5 -289.847
45 37.5 87.5 62.5 -289.847
46 62.5 87.5 62.5 -289.847
47 87.5 87.5 62.5 -289.847
48 12.5014 12.4986 87.5 -289.847
49 37.5 12.4986 87.5 -289.847