ITEM: TIMESTEP
0
ITEM: NUMBER OF ATOMS
500
ITEM: BOX BOUNDS pp pp pp
0 1
0 1
0 1
ITEM: ATOMS id x y z E
0 0.0496733 0.0496096 0.051236 -2995.47
1 0.0496279 0.147084 0.148943 -2995.47
2 0.150876 0.0517421 0.150755 -2995.47
3 0.150013 0.150477 0.0504151 -2995.47
4 0.0507232 0.0499985 0.247929 -2995.47
5 0.0487149 0.14876 0.35138 -2995.47
6 0.150902 0.0506559 0.350275 -2995.47
7 0.151542 0.147323 0.248165 -2995.47
8 0.0503499 0.0502857 0.451446 -2995.47
9 0.050212 0.150476 0.549726 -2995.47
10 0.151291 0.0497645 0.550628 -2995.47
11 0.149989 0.150391 0.44805 -2995.47
12 0.0496566 0.0498977 0.648743 -2995.47
13 0.051046 0.149857 0.749865 -2995.47
14 0.150295 0.0513835 0.748363 -2995.47
15 0.151427 0.149039 0.649395 -2995.47
16 0.0520739 0.0507364 0.849408 -2995.47
17 0.0503047 0.148658 0.950276 -2995.47
18 0.149516 0.0492486 0.948343 -2995.47
19 0.150253 0.150293 0.84859 -2995.47
20 0.0491058 0.249282 0.05074 -2995.47
21 0.0517298 0.349603 0.150347 -2995.47
22 0.151748 0.251164 0.150593 -2995.47
23 0.149071 0.349786 0.0487765 -2995.47
24 0.0515847 0.249522 0.249424 -2995.47
25 0.0515303 0.349984 0.351519 -2995.47
26 0.150595 0.248659 0.349843 -2995.47
27 0.149853 0.350323 0.249795 -2995.47
28 0.0490539 0.250951 0.448619 -2995.47
29 0.0504197 0.350291 0.550725 -2995.47
30 0.149287 0.249748 0.549098 -2995.47
31 0.151389 0.350583 0.449167 -2995.47
32 0.0501879 0.250505 0.649149 -2995.47
33 0.0490694 0.349847 0.747874 -2995.47
34 0.15049 0.24956 0.749475 -2995.47
35 0.150221 0.350312 0.649371 -2995.47
36 0.0504423 0.252451 0.850562 -2995.47
37 0.0486991 0.34952 0.950403 -2995.47
38 0.150354 0.250465 0.950359 -2995.47
39 0.148418 0.349567 0.848909 -2995.47
40 0.0508014 0.450647 0.0500177 -2995.47
41 0.0510415 0.549278 0.147843 -2995.47
42 0.149557 0.451074 0.149852 -2995.47
43 0.152098 0.551402 0.0502289 -2995.47
44 0.049734 0.449136 0.250689 -2995.47
45 0.0498701 0.549354 0.352437 -2995.47
46 0.150512 0.44917 0.348353 -2995.47
47 0.150358 0.550286 0.249965 -2995.47
48 0.0497769 0.451656 0.450673 -2995.47
49 0.0492999 0.549908 0.549091 -2995.47
50 0.149744 0.451291 0.551599 -2995.47
51 0.151435 0.550938 0.450645 -2995.47
52 0.0511669 0.45114 0.651975 -2995.47
53 0.0508354 0.550889 0.750545 -2995.47
54 0.149588 0.449164 0.748625 -2995.47
55 0.151032 0.55035 0.650421 -2995.47
56 0.0502889 0.450075 0.849633 -2995.47
57 0.0522198 0.548914 0.950528 -2995.47
58 0.151965 0.449809 0.948863 -2995.47
59 0.149493 0.549759 0.85006 -2995.47
60 0.0497629 0.64895 0.0497848 -2995.47
61 0.0513861 0.751376 0.152062 -2995.47
62 0.150592 0.649647 0.151287 -2995.47
63 0.148049 0.750576 0.0510814 -2995.47
64 0.0496545 0.649694 0.248763 -2995.47
65 0.0483606 0.749662 0.348973 -2995.47
66 0.150161 0.649829 0.349775 -2995.47
67 0.151861 0.749253 0.249541 -2995.47
68 0.0489204 0.650732 0.449222 -2995.47
69 0.0499462 0.749402 0.550224 -2995.47
70 0.149393 0.64912 0.549301 -2995.47
71 0.150118 0.749155 0.449654 -2995.47
72 0.0498452 0.651219 0.650852 -2995.47
73 0.0508843 0.750327 0.751635 -2995.47
74 0.15059 0.649882 0.750254 -2995.47
75 0.151468 0.749007 0.650784 -2995.47
76 0.0488157 0.649876 0.850771 -2995.47
77 0.0514721 0.751475 0.949703 -2995.47
78 0.150982 0.651082 0.947913 -2995.47
79 0.150315 0.751164 0.850355 -2995.47
80 0.050783 0.85115 0.0512009 -2995.47
81 0.0493865 0.948951 0.151023 -2995.47
82 0.15153 0.851176 0.151742 -2995.47
83 0.149102 0.94974 0.0508597 -2995.47
84 0.0498528 0.85073 0.249087 -2995.47
85 0.0517708 0.951358 0.350876 -2995.47
86 0.150027 0.850576 0.351217 -2995.47
87 0.149698 0.949489 0.251815 -2995.47
88 0.0496467 0.849838 0.451121 -2995.47
89 0.0487321 0.948451 0.548766 -2995.47
90 0.150224 0.849266 0.550682 -2995.47
91 0.150612 0.949442 0.449929 -2995.47
92 0.0503082 0.850309 0.650436 -2995.47
93 0.0481195 0.950653 0.749711 -2995.47
94 0.150077 0.847681 0.749057 -2995.47
95 0.1506 0.952119 0.650618 -2995.47
96 0.0509706 0.851192 0.851444 -2995.47
97 0.0508598 0.950334 0.951799 -2995.47
98 0.148944 0.84942 0.949888 -2995.47
99 0.150184 0.948382 0.848671 -2995.47
100 0.249286 0.0501594 0.0497393 -2995.47
101 0.251804 0.149511 0.149635 -2995.47
102 0.346771 0.050091 0.150683 -2995.47
103 0.349132 0.150616 0.050844 -2995.47
104 0.248505 0.0494215 0.248335 -2995.47
105 0.249478 0.149674 0.348652 -2995.47
106 0.350883 0.0500959 0.350311 -2995.47
107 0.349414 0.149336 0.249458 -2995.47
108 0.250549 0.0512258 0.448944 -2995.47
109 0.249705 0.14861 0.551049 -2995.47
110 0.349127 0.0494818 0.54948 -2995.47
111 0.34932 0.149248 0.448473 -2995.47
112 0.249882 0.0497119 0.649448 -2995.47
113 0.249756 0.151502 0.749315 -2995.47
114 0.349614 0.0502302 0.74943 -2995.47
115 0.349752 0.149771 0.649273 -2995.47
116 0.250659 0.049566 0.850508 -2995.47
117 0.250165 0.149987 0.950023 -2995.47
118 0.350011 0.0491185 0.950066 -2995.47
119 0.351653 0.150091 0.850405 -2995.47
120 0.249504 0.250692 0.0499 -2995.47
121 0.250411 0.350329 0.148874 -2995.47
122 0.350479 0.250126 0.149522 -2995.47
123 0.348303 0.349928 0.0500569 -2995.47
124 0.248968 0.249697 0.249619 -2995.47
125 0.249867 0.350515 0.350042 -2995.47
126 0.350648 0.250185 0.349143 -2995.47
127 0.348654 0.349666 0.249669 -2995.47
128 0.249016 0.249157 0.450796 -2995.47
129 0.249834 0.350092 0.550242 -2995.47
130 0.349992 0.251029 0.549797 -2995.47
131 0.350419 0.34991 0.450064 -2995.47
132 0.249819 0.250326 0.64897 -2995.47
133 0.248704 0.350548 0.74983 -2995.47
134 0.350598 0.249186 0.751558 -2995.47
135 0.350004 0.350012 0.649948 -2995.47
136 0.24995 0.250258 0.851532 -2995.47
137 0.248461 0.348936 0.948247 -2995.47
138 0.349588 0.250061 0.950781 -2995.47
139 0.350444 0.348568 0.849323 -2995.47
140 0.250634 0.448365 0.0514079 -2995.47
141 0.249132 0.550074 0.148726 -2995.47
142 0.349964 0.450345 0.148935 -2995.47
143 0.35114 0.550838 0.0492303 -2995.47
144 0.249804 0.449625 0.249608 -2995.47
145 0.248093 0.549194 0.350111 -2995.47
146 0.348379 0.450479 0.35066 -2995.47
147 0.35045 0.548888 0.250278 -2995.47
148 0.249699 0.451638 0.449961 -2995.47
149 0.248459 0.552169 0.549665 -2995.47
150 0.351562 0.452251 0.549785 -2995.47
151 0.352359 0.549865 0.448654 -2995.47
152 0.251433 0.451296 0.649718 -2995.47
153 0.250723 0.549987 0.748568 -2995.47
154 0.34807 0.451095 0.749162 -2995.47
155 0.351084 0.550574 0.650675 -2995.47
156 0.248493 0.449421 0.850371 -2995.47
157 0.249278 0.549497 0.948147 -2995.47
158 0.350386 0.450086 0.9499 -2995.47
159 0.351785 0.548969 0.849082 -2995.47
160 0.250835 0.651993 0.0504366 -2995.47
161 0.250989 0.750598 0.150329 -2995.47
162 0.350147 0.649331 0.150128 -2995.47
163 0.348459 0.752001 0.0512986 -2995.47
164 0.250937 0.648536 0.250873 -2995.47
165 0.248375 0.750983 0.350238 -2995.47
166 0.349931 0.650926 0.349689 -2995.47
167 0.348607 0.750596 0.248707 -2995.47
168 0.250233 0.648778 0.451692 -2995.47
169 0.250451 0.749956 0.548935 -2995.47
170 0.350581 0.647882 0.550897 -2995.47
171 0.35044 0.749051 0.448882 -2995.47
172 0.251159 0.650032 0.648758 -2995.47
173 0.249928 0.750459 0.750144 -2995.47
174 0.350405 0.649028 0.749858 -2995.47
175 0.349295 0.750294 0.648557 -2995.47
176 0.249902 0.649092 0.849778 -2995.47
177 0.249347 0.749143 0.94992 -2995.47
178 0.350589 0.650259 0.950286 -2995.47
179 0.350556 0.751284 0.848178 -2995.47
180 0.248859 0.850214 0.0500012 -2995.47
181 0.250632 0.949961 0.150232 -2995.47
182 0.349106 0.850602 0.149895 -2995.47
183 0.350108 0.951065 0.0516029 -2995.47
184 0.249541 0.848949 0.248881 -2995.47
185 0.250516 0.950597 0.349422 -2995.47
186 0.3488 0.850493 0.352222 -2995.47
187 0.350498 0.948836 0.250213 -2995.47
188 0.252195 0.849415 0.452102 -2995.47
189 0.249752 0.950203 0.550288 -2995.47
190 0.351316 0.849632 0.548352 -2995.47
191 0.349312 0.950773 0.449098 -2995.47
192 0.249409 0.850716 0.650526 -2995.47
193 0.251243 0.949395 0.748126 -2995.47
194 0.347304 0.850729 0.74996 -2995.47
195 0.351735 0.951096 0.650299 -2995.47
196 0.251309 0.849104 0.850851 -2995.47
197 0.250754 0.948381 0.949887 -2995.47
198 0.351234 0.848898 0.950967 -2995.47
199 0.349978 0.949961 0.849688 -2995.47
200 0.450188 0.0509501 0.0503006 -2995.47
201 0.449451 0.149882 0.151616 -2995.47
202 0.550002 0.0501319 0.149454 -2995.47
203 0.55326 0.148946 0.0497953 -2995.47
204 0.449165 0.0486508 0.251877 -2995.47
205 0.448874 0.150403 0.347243 -2995.47
206 0.552325 0.0486598 0.347709 -2995.47
207 0.550374 0.150543 0.248836 -2995.47
208 0.449807 0.0502796 0.44991 -2995.47
209 0.449372 0.151773 0.551071 -2995.47
210 0.549306 0.0490457 0.54849 -2995.47
211 0.550264 0.147941 0.450637 -2995.47
212 0.449813 0.0482472 0.649675 -2995.47
213 0.451959 0.149847 0.750891 -2995.47
214 0.548974 0.0496396 0.750381 -2995.47
215 0.550375 0.149306 0.648537 -2995.47
216 0.452105 0.049392 0.847821 -2995.47
217 0.450852 0.151518 0.949302 -2995.47
218 0.549121 0.0510674 0.947881 -2995.47
219 0.551092 0.148384 0.850075 -2995.47
220 0.450961 0.250428 0.0503945 -2995.47
221 0.451008 0.350324 0.150236 -2995.47
222 0.55088 0.2498 0.1508 -2995.47
223 0.550074 0.34926 0.048865 -2995.47
224 0.449023 0.249471 0.249413 -2995.47
225 0.449843 0.350727 0.347217 -2995.47
226 0.550699 0.250005 0.349852 -2995.47
227 0.549875 0.350722 0.249747 -2995.47
228 0.449975 0.24925 0.449816 -2995.47
229 0.450638 0.351061 0.549954 -2995.47
230 0.551429 0.249237 0.549887 -2995.47
231 0.551343 0.349856 0.450269 -2995.47
232 0.449091 0.249591 0.648835 -2995.47
233 0.449875 0.350358 0.750961 -2995.47
234 0.549032 0.250429 0.749611 -2995.47
235 0.549803 0.350061 0.650429 -2995.47
236 0.451237 0.250398 0.849742 -2995.47
237 0.450637 0.348393 0.949342 -2995.47
238 0.551056 0.252011 0.948946 -2995.47
239 0.549917 0.349283 0.850844 -2995.47
240 0.449463 0.450069 0.0514255 -2995.47
241 0.44983 0.551277 0.149036 -2995.47
242 0.548947 0.45026 0.150159 -2995.47
243 0.550259 0.549209 0.0500033 -2995.47
244 0.449444 0.45083 0.249687 -2995.47
245 0.449963 0.547895 0.348984 -2995.47
246 0.550178 0.450433 0.349723 -2995.47
247 0.549808 0.549723 0.249336 -2995.47
248 0.450062 0.450284 0.449904 -2995.47
249 0.44988 0.54966 0.551842 -2995.47
250 0.549632 0.450871 0.549976 -2995.47
251 0.548695 0.548497 0.449757 -2995.47
252 0.451567 0.450857 0.64948 -2995.47
253 0.450007 0.551399 0.748873 -2995.47
254 0.551033 0.450357 0.749127 -2995.47
255 0.548045 0.549923 0.64909 -2995.47
256 0.450476 0.452031 0.850194 -2995.47
257 0.450414 0.550338 0.949389 -2995.47
258 0.547305 0.450208 0.950194 -2995.47
259 0.551089 0.550358 0.849101 -2995.47
260 0.449516 0.649654 0.0497129 -2995.47
261 0.451029 0.751661 0.149503 -2995.47
262 0.549798 0.650152 0.149363 -2995.47
263 0.548767 0.749957 0.0511429 -2995.47
264 0.453215 0.651953 0.248068 -2995.47
265 0.448945 0.751281 0.350559 -2995.47
266 0.55067 0.651686 0.34963 -2995.47
267 0.548984 0.74983 0.250361 -2995.47
268 0.449791 0.651005 0.45131 -2995.47
269 0.450448 0.747562 0.550605 -2995.47
270 0.548578 0.649844 0.549037 -2995.47
271 0.550924 0.748199 0.450373 -2995.47
272 0.449269 0.64974 0.6516 -2995.47
273 0.450113 0.750228 0.749426 -2995.47
274 0.551418 0.650381 0.750295 -2995.47
275 0.551171 0.749286 0.650533 -2995.47
276 0.451988 0.64964 0.849703 -2995.47
277 0.450877 0.748902 0.950527 -2995.47
278 0.550456 0.648404 0.951809 -2995.47
279 0.548056 0.75077 0.850496 -2995.47
280 0.449615 0.850484 0.0485322 -2995.47
281 0.45016 0.950171 0.149403 -2995.47
282 0.550586 0.849835 0.150409 -2995.47
283 0.548398 0.95008 0.0481436 -2995.47
284 0.450072 0.851159 0.250665 -2995.47
285 0.450353 0.948082 0.351852 -2995.47
286 0.549597 0.850436 0.351443 -2995.47
287 0.550962 0.950577 0.250895 -2995.47
288 0.450794 0.850182 0.450724 -2995.47
289 0.44912 0.949566 0.550289 -2995.47
290 0.551059 0.848446 0.548983 -2995.47
291 0.549287 0.949778 0.449815 -2995.47
292 0.450234 0.851065 0.649399 -2995.47
293 0.448935 0.951042 0.749899 -2995.47
294 0.548843 0.85097 0.749406 -2995.47
295 0.551064 0.949648 0.649128 -2995.47
296 0.450217 0.850403 0.850668 -2995.47
297 0.450169 0.950659 0.948778 -2995.47
298 0.550107 0.84864 0.949591 -2995.47
299 0.549721 0.950273 0.853434 -2995.47
300 0.648645 0.0513525 0.0482198 -2995.47
301 0.65201 0.150496 0.150695 -2995.47
302 0.75138 0.0500245 0.150076 -2995.47
303 0.749701 0.150331 0.0508905 -2995.47
304 0.647338 0.0500883 0.248994 -2995.47
305 0.651268 0.150367 0.35039 -2995.47
306 0.749156 0.0501448 0.349902 -2995.47
307 0.748562 0.149926 0.250282 -2995.47
308 0.651427 0.050098 0.450562 -2995.47
309 0.648657 0.150628 0.550225 -2995.47
310 0.750694 0.0503819 0.551055 -2995.47
311 0.750227 0.148315 0.450593 -2995.47
312 0.649626 0.0508746 0.649694 -2995.47
313 0.649665 0.151276 0.750493 -2995.47
314 0.749526 0.0491705 0.750433 -2995.47
315 0.751556 0.150313 0.649978 -2995.47
316 0.650482 0.0513796 0.850026 -2995.47
317 0.651073 0.150696 0.949188 -2995.47
318 0.748603 0.0512751 0.947628 -2995.47
319 0.749244 0.151634 0.849665 -2995.47
320 0.650959 0.252287 0.0507927 -2995.47
321 0.650366 0.350401 0.148988 -2995.47
322 0.748343 0.250341 0.149343 -2995.47
323 0.749299 0.350821 0.0485941 -2995.47
324 0.649817 0.250352 0.250172 -2995.47
325 0.648597 0.349067 0.352155 -2995.47
326 0.749859 0.252131 0.348225 -2995.47
327 0.7495 0.349561 0.251036 -2995.47
328 0.649949 0.249154 0.449222 -2995.47
329 0.650706 0.35078 0.551526 -2995.47
330 0.748955 0.250755 0.548253 -2995.47
331 0.74951 0.34872 0.450791 -2995.47
332 0.650564 0.249839 0.649182 -2995.47
333 0.651029 0.350707 0.748816 -2995.47
334 0.750959 0.250082 0.749497 -2995.47
335 0.749281 0.349226 0.650281 -2995.47
336 0.649816 0.248175 0.849991 -2995.47
337 0.651141 0.34943 0.948081 -2995.47
338 0.751486 0.248211 0.949368 -2995.47
339 0.7488 0.34964 0.848396 -2995.47
340 0.65016 0.449674 0.0527002 -2995.47
341 0.650382 0.551214 0.150556 -2995.47
342 0.750389 0.448803 0.149952 -2995.47
343 0.750511 0.550716 0.0497655 -2995.47
344 0.64973 0.448927 0.249468 -2995.47
345 0.649678 0.549881 0.351179 -2995.47
346 0.748553 0.451214 0.350535 -2995.47
347 0.749887 0.548565 0.250889 -2995.47
348 0.650852 0.449321 0.451032 -2995.47
349 0.649382 0.550851 0.55006 -2995.47
350 0.751719 0.448123 0.550205 -2995.47
351 0.748781 0.550827 0.450955 -2995.47
352 0.648672 0.448913 0.650359 -2995.47
353 0.651161 0.549316 0.75028 -2995.47
354 0.74855 0.450282 0.750522 -2995.47
355 0.750153 0.550382 0.649107 -2995.47
356 0.649858 0.449289 0.849296 -2995.47
357 0.64974 0.548511 0.949365 -2995.47
358 0.749764 0.450924 0.949603 -2995.47
359 0.748809 0.549629 0.850156 -2995.47
360 0.650965 0.650651 0.04958 -2995.47
361 0.648912 0.750546 0.14907 -2995.47
362 0.750688 0.649135 0.150324 -2995.47
363 0.751005 0.751515 0.0495535 -2995.47
364 0.650029 0.648541 0.249062 -2995.47
365 0.65144 0.750529 0.350571 -2995.47
366 0.751082 0.651498 0.350486 -2995.47
367 0.753076 0.749975 0.251642 -2995.47
368 0.650124 0.650022 0.448348 -2995.47
369 0.649531 0.750353 0.548166 -2995.47
370 0.748744 0.649545 0.547241 -2995.47
371 0.749921 0.751025 0.449146 -2995.47
372 0.650353 0.651119 0.648312 -2995.47
373 0.649607 0.750545 0.751507 -2995.47
374 0.749297 0.650645 0.749903 -2995.47
375 0.750519 0.749699 0.648959 -2995.47
376 0.650012 0.647912 0.849975 -2995.47
377 0.648921 0.74886 0.948045 -2995.47
378 0.749307 0.65072 0.951902 -2995.47
379 0.750007 0.74991 0.850345 -2995.47
380 0.651647 0.850191 0.0496436 -2995.47
381 0.649605 0.949007 0.150245 -2995.47
382 0.750627 0.85033 0.150487 -2995.47
383 0.748701 0.949372 0.0499819 -2995.47
384 0.649494 0.851 0.249508 -2995.47
385 0.64849 0.949368 0.35035 -2995.47
386 0.749488 0.849571 0.350261 -2995.47
387 0.749578 0.949916 0.248908 -2995.47
388 0.649812 0.849244 0.449914 -2995.47
389 0.649678 0.949589 0.551988 -2995.47
390 0.751178 0.84913 0.54936 -2995.47
391 0.750313 0.949563 0.448574 -2995.47
392 0.649967 0.848736 0.649827 -2995.47
393 0.649356 0.950224 0.749923 -2995.47
394 0.751185 0.849534 0.751617 -2995.47
395 0.75039 0.948818 0.649624 -2995.47
396 0.650254 0.85049 0.85062 -2995.47
397 0.649609 0.95014 0.950607 -2995.47
398 0.747714 0.848989 0.947915 -2995.47
399 0.750038 0.949449 0.851618 -2995.47
400 0.848562 0.0494919 0.0487069 -2995.47
401 0.851055 0.149788 0.150403 -2995.47
402 0.951007 0.0490976 0.151093 -2995.47
403 0.951017 0.151361 0.0497206 -2995.47
404 0.848965 0.0483398 0.249232 -2995.47
405 0.849392 0.150359 0.350432 -2995.47
406 0.950866 0.0507717 0.34978 -2995.47
407 0.949277 0.149668 0.249486 -2995.47
408 0.850249 0.0491214 0.448855 -2995.47
409 0.850056 0.148196 0.549263 -2995.47
410 0.951549 0.0492694 0.550212 -2995.47
411 0.948808 0.150936 0.449108 -2995.47
412 0.849073 0.0499752 0.65009 -2995.47
413 0.851159 0.15049 0.74918 -2995.47
414 0.950597 0.0499333 0.748948 -2995.47
415 0.949891 0.149508 0.650188 -2995.47
416 0.849507 0.0485976 0.849264 -2995.47
417 0.849931 0.148224 0.950351 -2995.47
418 0.949002 0.0495208 0.94851 -2995.47
419 0.949353 0.150095 0.851563 -2995.47
420 0.848585 0.250369 0.0511234 -2995.47
421 0.850593 0.349764 0.149392 -2995.47
422 0.94983 0.249322 0.147249 -2995.47
423 0.95051 0.349595 0.0496335 -2995.47
424 0.847835 0.251493 0.249597 -2995.47
425 0.850451 0.349593 0.35022 -2995.47
426 0.950061 0.250028 0.350391 -2995.47
427 0.949147 0.350377 0.250309 -2995.47
428 0.850338 0.248431 0.451034 -2995.47
429 0.850991 0.349069 0.550883 -2995.47
430 0.949018 0.248713 0.549558 -2995.47
431 0.950075 0.349233 0.450499 -2995.47
432 0.850201 0.25018 0.648961 -2995.47
433 0.850309 0.349503 0.749466 -2995.47
434 0.94896 0.251598 0.750362 -2995.47
435 0.949418 0.349066 0.651804 -2995.47
436 0.850455 0.249441 0.849282 -2995.47
437 0.851048 0.349409 0.950255 -2995.47
438 0.950462 0.248237 0.949601 -2995.47
439 0.948559 0.348959 0.849836 -2995.47
440 0.84895 0.449622 0.0502749 -2995.47
441 0.849849 0.550405 0.149598 -2995.47
442 0.94904 0.448524 0.149468 -2995.47
443 0.950471 0.548534 0.0493423 -2995.47
444 0.84886 0.448529 0.248591 -2995.47
445 0.850637 0.549818 0.351047 -2995.47
446 0.950374 0.449471 0.351841 -2995.47
447 0.950855 0.548578 0.249935 -2995.47
448 0.852259 0.450061 0.449307 -2995.47
449 0.85125 0.550698 0.549169 -2995.47
450 0.95096 0.451319 0.551026 -2995.47
451 0.950558 0.547654 0.450811 -2995.47
452 0.849889 0.448825 0.651022 -2995.47
453 0.849803 0.550775 0.749453 -2995.47
454 0.950361 0.451222 0.750762 -2995.47
455 0.949442 0.549583 0.65128 -2995.47
456 0.850899 0.449907 0.847901 -2995.47
457 0.850107 0.551212 0.949668 -2995.47
458 0.949166 0.449702 0.949439 -2995.47
459 0.951226 0.550745 0.85128 -2995.47
460 0.848921 0.649592 0.0492775 -2995.47
461 0.852386 0.750083 0.15083 -2995.47
462 0.95047 0.650778 0.1494 -2995.47
463 0.950145 0.750573 0.0505129 -2995.47
464 0.849801 0.649604 0.250218 -2995.47
465 0.850263 0.748662 0.351787 -2995.47
466 0.948275 0.650512 0.349893 -2995.47
467 0.949312 0.751525 0.249052 -2995.47
468 0.850926 0.649198 0.450057 -2995.47
469 0.848942 0.750931 0.550256 -2995.47
470 0.949025 0.651381 0.550061 -2995.47
471 0.94951 0.750029 0.448788 -2995.47
472 0.850146 0.649048 0.648428 -2995.47
473 0.851599 0.750391 0.750526 -2995.47
474 0.949612 0.649468 0.749981 -2995.47
475 0.948625 0.749206 0.649565 -2995.47
476 0.848942 0.649131 0.851695 -2995.47
477 0.850691 0.753099 0.951422 -2995.47
478 0.948969 0.64962 0.95054 -2995.47
479 0.949972 0.751651 0.849734 -2995.47
480 0.849993 0.847981 0.0490991 -2995.47
481 0.850068 0.949587 0.149695 -2995.47
482 0.949605 0.849578 0.149591 -2995.47
483 0.949039 0.950487 0.0516488 -2995.47
484 0.848804 0.850431 0.251466 -2995.47
485 0.849546 0.951707 0.349108 -2995.47
486 0.949276 0.849375 0.349401 -2995.47
487 0.948883 0.949221 0.248491 -2995.47
488 0.851142 0.849854 0.450103 -2995.47
489 0.84961 0.948932 0.55035 -2995.47
490 0.94914 0.848903 0.54905 -2995.47
491 0.951298 0.949711 0.450651 -2995.47
492 0.849847 0.848027 0.651063 -2995.47
493 0.850184 0.950094 0.749748 -2995.47
494 0.951004 0.848562 0.750379 -2995.47
495 0.949959 0.949467 0.650788 -2995.47
496 0.848832 0.849269 0.850161 -2995.47
497 0.851274 0.951044 0.950886 -2995.47
498 0.951318 0.85067 0.948524 -2995.47
499 0.949583 0.949084 0.849671 -2995.47
ITEM: TIMESTEP
0.001
ITEM: NUMBER OF ATOMS
500
ITEM: BOX BOUNDS pp pp pp
0 1
0 1
0 1
ITEM: ATOMS id x y z E
0 0.049352 0.0492106 0.0524438 -2995.63
1 0.0492658 0.144245 0.147909 -2995.63
2 0.151744 0.0534143 0.15146 -2995.63
3 0.15003 0.150949 0.0508222 -2995.63
4 0.0514367 0.0499838 0.245915 -2995.63
5 0.047459 0.14754 0.352716 -2995.63
6 0.151784 0.0512997 0.350544 -2995.63
7 0.153043 0.144717 0.246365 -2995.63
8 0.0507077 0.0505698 0.45288 -2995.63
9 0.0504249 0.15095 0.549445 -2995.63
10 0.152549 0.0495278 0.551221 -2995.63
11 0.149973 0.150769 0.446147 -2995.63
12 0.0493266 0.0497965 0.647495 -2995.63
13 0.0520582 0.149739 0.749724 -2995.63
14 0.150599 0.052735 0.746759 -2995.63
15 0.152818 0.148109 0.64879 -2995.63
16 0.0541051 0.0514466 0.848813 -2995.63
17 0.0506194 0.147335 0.950544 -2995.63
18 0.149059 0.0485013 0.946718 -2995.63
19 0.150512 0.150596 0.84721 -2995.63
20 0.0482549 0.248573 0.0514662 -2995.63
21 0.0534236 0.349213 0.150684 -2995.63
22 0.153469 0.252291 0.151164 -2995.63
23 0.148151 0.349581 0.0475701 -2995.63
24 0.0531414 0.249028 0.248855 -2995.63
25 0.0530357 0.34997 0.353008 -2995.63
26 0.151175 0.247335 0.349671 -2995.63
27 0.149721 0.35064 0.249594 -2995.63
28 0.0481329 0.251883 0.447272 -2995.63
29 0.0508248 0.350589 0.551436 -2995.63
30 0.148582 0.249497 0.548199 -2995.63
31 0.152756 0.35117 0.448362 -2995.63
32 0.0503719 0.250985 0.64831 -2995.63
33 0.0481555 0.349694 0.745788 -2995.63
34 0.150967 0.249136 0.748946 -2995.63
35 0.150446 0.350616 0.648744 -2995.63
36 0.05087 0.254845 0.851104 -2995.63
37 0.0474145 0.34906 0.950801 -2995.63
38 0.150679 0.250906 0.950711 -2995.63
39 0.146851 0.349146 0.847823 -2995.63
40 0.0516009 0.451269 0.0500199 -2995.63
41 0.0520585 0.548566 0.145729 -2995.63
42 0.149127 0.452123 0.149707 -2995.63
43 0.154183 0.552791 0.0504269 -2995.63
44 0.0494669 0.448288 0.251366 -2995.63
45 0.0497501 0.548728 0.354826 -2995.63
46 0.151007 0.448363 0.34674 -2995.63
47 0.15069 0.550561 0.249932 -2995.63
48 0.0495925 0.453256 0.451348 -2995.63
49 0.0486134 0.549847 0.548221 -2995.63
50 0.149495 0.452567 0.553172 -2995.63
51 0.152821 0.551855 0.451271 -2995.63
52 0.0522996 0.452275 0.65391 -2995.63
53 0.0516623 0.551775 0.751086 -2995.63
54 0.149194 0.44835 0.747279 -2995.63
55 0.152041 0.550715 0.650838 -2995.63
56 0.0505692 0.450134 0.849271 -2995.63
57 0.054417 0.547843 0.951054 -2995.63
58 0.153886 0.449607 0.94776 -2995.63
59 0.148994 0.54952 0.850094 -2995.63
60 0.0495384 0.647928 0.0495628 -2995.63
61 0.0527544 0.752732 0.154091 -2995.63
62 0.151182 0.64931 0.152549 -2995.63
63 0.146132 0.751137 0.0521624 -2995.63
64 0.0493048 0.649381 0.247555 -2995.63
65 0.0467563 0.749335 0.347942 -2995.63
66 0.150308 0.649662 0.349553 -2995.63
67 0.153688 0.748514 0.249103 -2995.63
68 0.0478453 0.651452 0.448454 -2995.63
69 0.0498954 0.748815 0.55045 -2995.63
70 0.148771 0.648273 0.548626 -2995.63
71 0.150225 0.748324 0.449315 -2995.63
72 0.0496917 0.652413 0.651693 -2995.63
73 0.0517498 0.750636 0.753248 -2995.63
74 0.151179 0.649769 0.750514 -2995.63
75 0.152916 0.748014 0.651539 -2995.63
76 0.0476522 0.64977 0.851541 -2995.63
77 0.0529006 0.752912 0.94942 -2995.63
78 0.151941 0.652148 0.945868 -2995.63
79 0.150634 0.752305 0.850694 -2995.63
80 0.0515419 0.852281 0.0523965 -2995.63
81 0.0487984 0.947923 0.152031 -2995.63
82 0.153036 0.852339 0.153458 -2995.63
83 0.148233 0.949501 0.0517201 -2995.63
84 0.0497131 0.851451 0.248218 -2995.63
85 0.0534963 0.9527 0.351739 -2995.63
86 0.15005 0.851132 0.352422 -2995.63
87 0.149407 0.948992 0.2536 -2995.63
88 0.0493033 0.849655 0.452208 -2995.63
89 0.0475061 0.946919 0.547573 -2995.63
90 0.150445 0.848541 0.551361 -2995.63
91 0.151234 0.948896 0.449874 -2995.63
92 0.0506133 0.850603 0.650859 -2995.63
93 0.0462872 0.951293 0.749428 -2995.63
94 0.150154 0.845422 0.748132 -2995.63
95 0.15117 0.954191 0.651228 -2995.63
96 0.0519288 0.852379 0.852847 -2995.63
97 0.051694 0.950678 0.953569 -2995.63
98 0.147926 0.848863 0.949792 -2995.63
99 0.150385 0.946786 0.847336 -2995.63
100 0.248565 0.0503073 0.0494644 -2995.63
101 0.253568 0.149058 0.149265 -2995.63
102 0.343621 0.0501699 0.151359 -2995.63
103 0.348293 0.151219 0.0516625 -2995.63
104 0.247052 0.0488276 0.246722 -2995.63
105 0.248982 0.149353 0.347306 -2995.63
106 0.35174 0.0501798 0.350599 -2995.63
107 0.348817 0.148678 0.248925 -2995.63
108 0.251078 0.052429 0.447904 -2995.63
109 0.249421 0.147252 0.552061 -2995.63
110 0.348275 0.0489758 0.548959 -2995.63
111 0.348654 0.148524 0.446973 -2995.63
112 0.249793 0.0494268 0.648915 -2995.63
113 0.249535 0.15298 0.748646 -2995.63
114 0.349228 0.0504814 0.748872 -2995.63
115 0.34951 0.149542 0.648567 -2995.63
116 0.251304 0.0491373 0.850993 -2995.63
117 0.250324 0.149967 0.950045 -2995.63
118 0.350036 0.0482592 0.950132 -2995.63
119 0.353285 0.150169 0.850807 -2995.63
120 0.24901 0.251372 0.0498003 -2995.63
121 0.250803 0.350651 0.147781 -2995.63
122 0.350948 0.25026 0.149052 -2995.63
123 0.346654 0.34985 0.0500952 -2995.63
124 0.247961 0.249399 0.249242 -2995.63
125 0.249742 0.351007 0.350086 -2995.63
126 0.351265 0.25037 0.348301 -2995.63
127 0.347324 0.349345 0.249329 -2995.63
128 0.248063 0.248321 0.451575 -2995.63
129 0.249675 0.350207 0.550472 -2995.63
130 0.349973 0.25204 0.549582 -2995.63
131 0.350831 0.349828 0.450123 -2995.63
132 0.249645 0.250652 0.647953 -2995.63
133 0.247434 0.351077 0.74966 -2995.63
134 0.351187 0.248379 0.753078 -2995.63
135 0.350014 0.350034 0.649904 -2995.63
136 0.249898 0.250502 0.853025 -2995.63
137 0.246955 0.347899 0.946523 -2995.63
138 0.349189 0.25012 0.951556 -2995.63
139 0.350879 0.347177 0.848659 -2995.63
140 0.251248 0.446768 0.0527652 -2995.63
141 0.248301 0.550148 0.147477 -2995.63
142 0.349932 0.450691 0.147897 -2995.63
143 0.352239 0.551658 0.0484582 -2995.63
144 0.249613 0.44926 0.249201 -2995.63
145 0.246227 0.548407 0.35022 -2995.63
146 0.346777 0.450937 0.351304 -2995.63
147 0.35089 0.547802 0.250547 -2995.63
148 0.249408 0.453254 0.449946 -2995.63
149 0.24697 0.55428 0.54935 -2995.63
150 0.353084 0.454471 0.549572 -2995.63
151 0.35468 0.549749 0.447326 -2995.63
152 0.252846 0.452575 0.649414 -2995.63
153 0.251423 0.54998 0.747172 -2995.63
154 0.346189 0.452158 0.748346 -2995.63
155 0.352147 0.551132 0.651334 -2995.63
156 0.247023 0.448846 0.850707 -2995.63
157 0.24859 0.549008 0.946334 -2995.63
158 0.350763 0.450155 0.949799 -2995.63
159 0.353532 0.547963 0.848178 -2995.63
160 0.251653 0.653961 0.0508615 -2995.63
161 0.251945 0.751173 0.150646 -2995.63
162 0.350297 0.64868 0.150262 -2995.63
163 0.346959 0.753968 0.0525782 -2995.63
164 0.251871 0.647088 0.251732 -2995.63
165 0.246784 0.751946 0.350483 -2995.63
166 0.349871 0.65183 0.349368 -2995.63
167 0.347253 0.751186 0.247446 -2995.63
168 0.250485 0.647587 0.453334 -2995.63
169 0.2509 0.7499 0.547889 -2995.63
170 0.35116 0.645794 0.551772 -2995.63
171 0.350871 0.748101 0.447797 -2995.63
172 0.252302 0.650072 0.64754 -2995.63
173 0.249869 0.750887 0.750285 -2995.63
174 0.350793 0.648092 0.749731 -2995.63
175 0.348601 0.750594 0.647137 -2995.63
176 0.249829 0.648199 0.849543 -2995.63
177 0.248714 0.74831 0.949843 -2995.63
178 0.351165 0.650525 0.950546 -2995.63
179 0.351119 0.752527 0.84639 -2995.63
180 0.247721 0.850429 0.0499977 -2995.63
181 0.251234 0.949922 0.150462 -2995.63
182 0.348241 0.851207 0.14979 -2995.63
183 0.350215 0.952115 0.0531708 -2995.63
184 0.249097 0.847933 0.247807 -2995.63
185 0.251023 0.951183 0.348849 -2995.63
186 0.347612 0.850971 0.3544 -2995.63
187 0.350983 0.947687 0.250433 -2995.63
188 0.254337 0.848845 0.454171 -2995.63
189 0.249519 0.950395 0.550573 -2995.63
190 0.352621 0.849268 0.546741 -2995.63
191 0.348634 0.951544 0.448222 -2995.63
192 0.248835 0.851421 0.651013 -2995.63
193 0.252449 0.948816 0.746293 -2995.63
194 0.34468 0.851443 0.749903 -2995.63
195 0.353423 0.952161 0.650577 -2995.63
196 0.252591 0.848225 0.851697 -2995.63
197 0.251492 0.946778 0.949783 -2995.63
198 0.352448 0.847812 0.951918 -2995.63
199 0.34996 0.949923 0.849381 -2995.63
200 0.450365 0.0519095 0.0505944 -2995.63
201 0.448911 0.149749 0.153198 -2995.63
202 0.549997 0.0502577 0.148913 -2995.63
203 0.556463 0.147949 0.0495912 -2995.63
204 0.448348 0.0473033 0.253713 -2995.63
205 0.447789 0.150794 0.344533 -2995.63
206 0.554595 0.0473654 0.345484 -2995.63
207 0.550742 0.151078 0.247696 -2995.63
208 0.449617 0.0505624 0.449811 -2995.63
209 0.448746 0.153499 0.552109 -2995.63
210 0.548616 0.0480968 0.547008 -2995.63
211 0.550513 0.145908 0.451237 -2995.63
212 0.449642 0.0465447 0.649345 -2995.63
213 0.453886 0.149697 0.751745 -2995.63
214 0.547993 0.0492694 0.750735 -2995.63
215 0.55073 0.148615 0.647106 -2995.63
216 0.454145 0.0487989 0.845687 -2995.63
217 0.451699 0.153018 0.948625 -2995.63
218 0.548257 0.0521307 0.945811 -2995.63
219 0.552168 0.146819 0.850146 -2995.63
220 0.451918 0.250835 0.0507899 -2995.63
221 0.451992 0.350637 0.15047 -2995.63
222 0.551752 0.249603 0.151578 -2995.63
223 0.550154 0.348547 0.0477483 -2995.63
224 0.448066 0.248965 0.248823 -2995.63
225 0.449688 0.351447 0.344482 -2995.63
226 0.551367 0.249994 0.349703 -2995.63
227 0.549759 0.351428 0.249495 -2995.63
228 0.449963 0.248513 0.449622 -2995.63
229 0.451275 0.352102 0.549904 -2995.63
230 0.552828 0.248506 0.549769 -2995.63
231 0.552647 0.349716 0.450548 -2995.63
232 0.4482 0.249201 0.647703 -2995.63
233 0.449749 0.350732 0.751899 -2995.63
234 0.54809 0.250856 0.749216 -2995.63
235 0.549599 0.350107 0.650847 -2995.63
236 0.452463 0.250777 0.849491 -2995.63
237 0.451239 0.346821 0.9487 -2995.63
238 0.552113 0.253959 0.94792 -2995.63
239 0.54985 0.348601 0.851647 -2995.63
240 0.448927 0.450126 0.0528174 -2995.63
241 0.449664 0.552536 0.148092 -2995.63
242 0.547912 0.450519 0.150316 -2995.63
243 0.550522 0.548426 0.0500156 -2995.63
244 0.448885 0.45164 0.249359 -2995.63
245 0.449936 0.545853 0.347973 -2995.63
246 0.550363 0.450847 0.349448 -2995.63
247 0.549623 0.54945 0.248684 -2995.63
248 0.450128 0.45054 0.4498 -2995.63