ITEM: TIMESTEP
0
ITEM: NUMBER OF ATOMS
500
ITEM: BOX BOUNDS pp pp pp
0 1
0 1
0 1
ITEM: ATOMS id x y z E
0 0.0489852 0.0491133 0.0513505 15489.3
1 0.0505444 0.150357 0.150567 15489.3
2 0.149684 0.0483482 0.15011 15489.3
3 0.150538 0.148632 0.049113 15489.3
4 0.0513951 0.0509027 0.248578 15489.3
5 0.0491611 0.150926 0.350912 15489.3
6 0.151261 0.0491679 0.350498 15489.3
7 0.15008 0.150369 0.251327 15489.3
8 0.0496657 0.0502957 0.450297 15489.3
9 0.0495491 0.148562 0.550799 15489.3
10 0.15022 0.0492514 0.551413 15489.3
11 0.149901 0.150199 0.447902 15489.3
12 0.0495127 0.0509312 0.649953 15489.3
13 0.0484887 0.150546 0.749032 15489.3
14 0.147957 0.0522725 0.750114 15489.3
15 0.150706 0.149866 0.649737 15489.3
16 0.049904 0.0496017 0.849264 15489.3
17 0.0515593 0.150514 0.950446 15489.3
18 0.151442 0.0521766 0.950789 15489.3
19 0.149231 0.149125 0.8505 15489.3
20 0.0516691 0.249352 0.0485858 15489.3
21 0.0487691 0.350036 0.15072 15489.3
22 0.150215 0.249714 0.150753 15489.3
23 0.149601 0.348312 0.0493234 15489.3
24 0.0498508 0.250034 0.249745 15489.3
25 0.0490035 0.348906 0.34995 15489.3
26 0.150684 0.250132 0.348527 15489.3
27 0.150383 0.351214 0.249721 15489.3
28 0.0513185 0.250469 0.451055 15489.3
29 0.0494646 0.35016 0.54776 15489.3
30 0.150268 0.249777 0.549617 15489.3
31 0.150633 0.350158 0.450752 15489.3
32 0.0485366 0.249838 0.649258 15489.3
33 0.0494137 0.347552 0.750406 15489.3
34 0.150121 0.25045 0.749087 15489.3
35 0.149043 0.351774 0.650941 15489.3
36 0.0485152 0.249262 0.849574 15489.3
37 0.0506425 0.350004 0.953374 15489.3
38 0.148806 0.250114 0.952557 15489.3
39 0.151323 0.351069 0.848386 15489.3
40 0.0486224 0.448521 0.0505424 15489.3
41 0.049373 0.549297 0.148696 15489.3
42 0.148394 0.449798 0.150381 15489.3
43 0.14941 0.549951 0.0504534 15489.3
44 0.0503967 0.449029 0.251334 15489.3
45 0.0494445 0.551479 0.351016 15489.3
46 0.15009 0.450742 0.351571 15489.3
47 0.151477 0.549233 0.25092 15489.3
48 0.0509962 0.451093 0.448875 15489.3
49 0.0502525 0.547678 0.550222 15489.3
50 0.150681 0.451364 0.550291 15489.3
51 0.149607 0.553219 0.451024 15489.3
52 0.0491693 0.452192 0.650839 15489.3
53 0.0495114 0.54839 0.750547 15489.3
54 0.152245 0.450878 0.750341 15489.3
55 0.150249 0.548884 0.650371 15489.3
56 0.0508152 0.450142 0.851956 15489.3
57 0.0503301 0.551406 0.94887 15489.3
58 0.149752 0.450898 0.949673 15489.3
59 0.148421 0.549218 0.849159 15489.3
60 0.0479674 0.648827 0.0498374 15489.3
61 0.0511439 0.749408 0.150495 15489.3
62 0.149357 0.649945 0.150482 15489.3
63 0.149414 0.750506 0.049175 15489.3
64 0.0506659 0.649721 0.248443 15489.3
65 0.0519436 0.75091 0.351015 15489.3
66 0.151582 0.651404 0.349199 15489.3
67 0.151152 0.749017 0.249985 15489.3
68 0.0497933 0.650189 0.450005 15489.3
69 0.0511437 0.749251 0.549165 15489.3
70 0.149374 0.650238 0.550729 15489.3
71 0.147765 0.749788 0.448922 15489.3
72 0.051517 0.650299 0.650511 15489.3
73 0.0497594 0.749297 0.748311 15489.3
74 0.151443 0.650403 0.749109 15489.3
75 0.151352 0.751506 0.647702 15489.3
76 0.0523908 0.650979 0.850779 15489.3
77 0.0500861 0.75188 0.949664 15489.3
78 0.151417 0.650436 0.948292 15489.3
79 0.151096 0.75121 0.848633 15489.3
80 0.049008 0.849404 0.0508042 15489.3
81 0.0495849 0.949492 0.151248 15489.3
82 0.149265 0.850044 0.148747 15489.3
83 0.149542 0.95068 0.0517546 15489.3
84 0.0482859 0.849142 0.249765 15489.3
85 0.0504845 0.948808 0.351781 15489.3
86 0.150553 0.850806 0.351174 15489.3
87 0.149412 0.948797 0.251102 15489.3
88 0.0506323 0.851273 0.451331 15489.3
89 0.0492746 0.947778 0.5496 15489.3
90 0.148989 0.849006 0.54988 15489.3
91 0.150345 0.951963 0.451049 15489.3
92 0.0506849 0.849111 0.649957 15489.3
93 0.0494591 0.949411 0.751179 15489.3
94 0.15196 0.848487 0.748871 15489.3
95 0.14843 0.949955 0.649646 15489.3
96 0.04997 0.849809 0.85035 15489.3
97 0.0484612 0.952266 0.950177 15489.3
98 0.150868 0.849795 0.950067 15489.3
99 0.150662 0.947888 0.850938 15489.3
100 0.252504 0.0482093 0.0503137 15489.3
101 0.25262 0.150206 0.15025 15489.3
102 0.349937 0.0489311 0.150872 15489.3
103 0.350679 0.148144 0.0496758 15489.3
104 0.250484 0.0482969 0.248422 15489.3
105 0.249855 0.151661 0.349235 15489.3
106 0.350118 0.0492076 0.348662 15489.3
107 0.349486 0.151282 0.248514 15489.3
108 0.250275 0.0503897 0.448286 15489.3
109 0.249214 0.151316 0.549673 15489.3
110 0.350693 0.0516981 0.548403 15489.3
111 0.348218 0.150931 0.449797 15489.3
112 0.251972 0.0501976 0.649613 15489.3
113 0.249545 0.148682 0.751547 15489.3
114 0.351242 0.0503157 0.749898 15489.3
115 0.349173 0.149735 0.649592 15489.3
116 0.250468 0.0509123 0.848421 15489.3
117 0.249797 0.150828 0.949806 15489.3
118 0.348958 0.0503255 0.950904 15489.3
119 0.351012 0.15109 0.850793 15489.3
120 0.250781 0.249265 0.0500219 15489.3
121 0.250585 0.350822 0.150809 15489.3
122 0.350991 0.24937 0.151181 15489.3
123 0.3514 0.351545 0.0518016 15489.3
124 0.25145 0.249877 0.249458 15489.3
125 0.250154 0.34964 0.349761 15489.3
126 0.348736 0.250836 0.35029 15489.3
127 0.350181 0.348277 0.251566 15489.3
128 0.24849 0.24962 0.447894 15489.3
129 0.250204 0.350625 0.550093 15489.3
130 0.348923 0.249361 0.550372 15489.3
131 0.349924 0.349317 0.448586 15489.3
132 0.250591 0.248967 0.648815 15489.3
133 0.249087 0.351379 0.747366 15489.3
134 0.351055 0.249621 0.750191 15489.3
135 0.350398 0.349177 0.650187 15489.3
136 0.250487 0.250547 0.849207 15489.3
137 0.249987 0.349053 0.948384 15489.3
138 0.350945 0.251384 0.950965 15489.3
139 0.349239 0.348408 0.849125 15489.3
140 0.249972 0.451472 0.0508509 15489.3
141 0.249835 0.549523 0.150345 15489.3
142 0.349837 0.451288 0.149605 15489.3
143 0.350193 0.549486 0.0509456 15489.3
144 0.248488 0.449995 0.250024 15489.3
145 0.250493 0.549608 0.34946 15489.3
146 0.351453 0.451462 0.351319 15489.3
147 0.351883 0.549363 0.249611 15489.3
148 0.251761 0.451772 0.450389 15489.3
149 0.250087 0.551424 0.552113 15489.3
150 0.350973 0.449811 0.551244 15489.3
151 0.350052 0.550026 0.451316 15489.3
152 0.246797 0.45096 0.649053 15489.3
153 0.251193 0.549411 0.748991 15489.3
154 0.35108 0.450894 0.749822 15489.3
155 0.351008 0.549496 0.649627 15489.3
156 0.249785 0.450436 0.850124 15489.3
157 0.25034 0.54885 0.948905 15489.3
158 0.35116 0.449976 0.950552 15489.3
159 0.351007 0.55106 0.848975 15489.3
160 0.250773 0.650852 0.0509042 15489.3
161 0.248877 0.749702 0.151 15489.3
162 0.349807 0.648597 0.148381 15489.3
163 0.34975 0.749838 0.0509562 15489.3
164 0.248734 0.650877 0.248604 15489.3
165 0.248859 0.749504 0.349486 15489.3
166 0.349252 0.649457 0.350249 15489.3
167 0.351056 0.748644 0.249081 15489.3
168 0.247829 0.650754 0.448783 15489.3
169 0.247743 0.749149 0.549328 15489.3
170 0.350169 0.650516 0.548728 15489.3
171 0.351622 0.748793 0.450448 15489.3
172 0.247662 0.650376 0.650788 15489.3
173 0.249216 0.748523 0.750339 15489.3
174 0.350062 0.651092 0.749955 15489.3
175 0.350404 0.750005 0.648847 15489.3
176 0.250249 0.650103 0.850235 15489.3
177 0.250215 0.747705 0.950081 15489.3
178 0.348445 0.651064 0.950176 15489.3
179 0.348769 0.747892 0.851943 15489.3
180 0.249742 0.849907 0.050022 15489.3
181 0.2508 0.949601 0.149213 15489.3
182 0.350192 0.850371 0.150645 15489.3
183 0.34855 0.950223 0.0490754 15489.3
184 0.25099 0.849659 0.249137 15489.3
185 0.251831 0.950501 0.349335 15489.3
186 0.349244 0.851276 0.351389 15489.3
187 0.349504 0.949161 0.249491 15489.3
188 0.249826 0.850626 0.450109 15489.3
189 0.249373 0.948895 0.5495 15489.3
190 0.350127 0.850491 0.550308 15489.3
191 0.351814 0.949342 0.450175 15489.3
192 0.249196 0.849705 0.650974 15489.3
193 0.250385 0.950047 0.751013 15489.3
194 0.35138 0.84952 0.749224 15489.3
195 0.34876 0.949571 0.649428 15489.3
196 0.250283 0.84942 0.848955 15489.3
197 0.251202 0.950136 0.94982 15489.3
198 0.350895 0.850302 0.949539 15489.3
199 0.349474 0.946865 0.848747 15489.3
200 0.448547 0.0503622 0.0504099 15489.3
201 0.45021 0.148881 0.151156 15489.3
202 0.548955 0.0528865 0.148569 15489.3
203 0.54876 0.149252 0.0502864 15489.3
204 0.451912 0.0500194 0.250276 15489.3
205 0.450189 0.151276 0.348031 15489.3
206 0.551611 0.0493917 0.352193 15489.3
207 0.550118 0.150318 0.250688 15489.3
208 0.452034 0.0482169 0.450152 15489.3
209 0.449523 0.148681 0.548711 15489.3
210 0.549106 0.0502244 0.548947 15489.3
211 0.550678 0.14787 0.449942 15489.3
212 0.448786 0.0501232 0.64827 15489.3
213 0.450082 0.149179 0.750203 15489.3
214 0.550445 0.0507808 0.750801 15489.3
215 0.549731 0.14932 0.649297 15489.3
216 0.449132 0.0502974 0.85016 15489.3
217 0.45139 0.151333 0.950285 15489.3
218 0.549553 0.0485924 0.949337 15489.3
219 0.549943 0.149502 0.849808 15489.3
220 0.449699 0.249762 0.0519829 15489.3
221 0.449057 0.350334 0.148583 15489.3
222 0.551484 0.251889 0.14975 15489.3
223 0.549921 0.349495 0.0513799 15489.3
224 0.44946 0.249639 0.248083 15489.3
225 0.449176 0.350353 0.351017 15489.3
226 0.549579 0.251227 0.349972 15489.3
227 0.550506 0.350149 0.249438 15489.3
228 0.450807 0.25093 0.451579 15489.3
229 0.451187 0.350508 0.550712 15489.3
230 0.550073 0.249318 0.551837 15489.3
231 0.551651 0.35018 0.45072 15489.3
232 0.44977 0.248688 0.650532 15489.3
233 0.449722 0.349371 0.750913 15489.3
234 0.54881 0.250233 0.748976 15489.3
235 0.551665 0.349435 0.648993 15489.3
236 0.448619 0.250957 0.851452 15489.3
237 0.449075 0.349957 0.950168 15489.3
238 0.548733 0.250228 0.951041 15489.3
239 0.550293 0.347716 0.848975 15489.3
240 0.450081 0.450122 0.0504634 15489.3
241 0.450466 0.550243 0.151825 15489.3
242 0.550678 0.450141 0.151068 15489.3
243 0.54937 0.550927 0.0503622 15489.3
244 0.450907 0.448911 0.250064 15489.3
245 0.451388 0.549404 0.349079 15489.3
246 0.548781 0.450593 0.350108 15489.3
247 0.551077 0.548838 0.251031 15489.3
248 0.451781 0.45125 0.450155 15489.3
249 0.450731 0.550833 0.550333 15489.3
250 0.55126 0.448826 0.550115 15489.3
251 0.549795 0.550709 0.450129 15489.3
252 0.449626 0.449029 0.649662 15489.3
253 0.449265 0.550849 0.751876 15489.3
254 0.548894 0.450275 0.748324 15489.3
255 0.550289 0.551237 0.650004 15489.3
256 0.451193 0.44927 0.84975 15489.3
257 0.450384 0.550448 0.950599 15489.3
258 0.551218 0.448069 0.949806 15489.3
259 0.550908 0.549618 0.849879 15489.3
260 0.451708 0.64999 0.0489064 15489.3
261 0.450446 0.749488 0.150498 15489.3
262 0.549857 0.650215 0.150077 15489.3
263 0.550359 0.749294 0.0478104 15489.3
264 0.450854 0.651788 0.25074 15489.3
265 0.450598 0.751108 0.348949 15489.3
266 0.550779 0.650592 0.351153 15489.3
267 0.550091 0.749884 0.25095 15489.3
268 0.449325 0.648828 0.4508 15489.3
269 0.449892 0.750801 0.550807 15489.3
270 0.551278 0.650121 0.550915 15489.3
271 0.549768 0.749717 0.45208 15489.3
272 0.448789 0.651184 0.650245 15489.3
273 0.451208 0.749972 0.748602 15489.3
274 0.550704 0.649506 0.750479 15489.3
275 0.552509 0.749688 0.650927 15489.3
276 0.450275 0.649493 0.849728 15489.3
277 0.449286 0.752238 0.948918 15489.3
278 0.549644 0.650542 0.950799 15489.3
279 0.551115 0.750357 0.850426 15489.3
280 0.450269 0.850237 0.0499704 15489.3
281 0.44965 0.949243 0.150194 15489.3
282 0.549948 0.850313 0.149308 15489.3
283 0.552377 0.950183 0.0512074 15489.3
284 0.450376 0.848511 0.251331 15489.3
285 0.450592 0.950518 0.350231 15489.3
286 0.549027 0.849194 0.351176 15489.3
287 0.550037 0.949994 0.250167 15489.3
288 0.450156 0.850003 0.451188 15489.3
289 0.449076 0.949722 0.550189 15489.3
290 0.551 0.850202 0.550151 15489.3
291 0.548095 0.950887 0.448786 15489.3
292 0.449237 0.84998 0.650508 15489.3
293 0.449757 0.949883 0.74951 15489.3
294 0.550393 0.849311 0.749883 15489.3
295 0.549164 0.951847 0.65039 15489.3
296 0.450645 0.851285 0.850211 15489.3
297 0.450502 0.947531 0.949424 15489.3
298 0.549182 0.850249 0.949943 15489.3
299 0.548049 0.94973 0.848593 15489.3
300 0.649171 0.0482439 0.0513056 15489.3
301 0.650609 0.149576 0.150227 15489.3
302 0.749634 0.048957 0.150222 15489.3
303 0.749753 0.15003 0.0498245 15489.3
304 0.649076 0.0512663 0.249618 15489.3
305 0.650307 0.148935 0.347631 15489.3
306 0.750228 0.0494509 0.35109 15489.3
307 0.750143 0.151432 0.249549 15489.3
308 0.65028 0.0493993 0.447881 15489.3
309 0.651025 0.151229 0.551286 15489.3
310 0.748408 0.0507489 0.550111 15489.3
311 0.749521 0.149872 0.451742 15489.3
312 0.650621 0.0501948 0.649422 15489.3
313 0.649393 0.151075 0.750016 15489.3
314 0.749668 0.0499659 0.749653 15489.3
315 0.751384 0.149622 0.652106 15489.3
316 0.649971 0.0508179 0.8487 15489.3
317 0.649351 0.148353 0.951957 15489.3
318 0.749615 0.0481235 0.948719 15489.3
319 0.748815 0.149488 0.850896 15489.3
320 0.649106 0.249137 0.0496204 15489.3
321 0.650198 0.349769 0.14924 15489.3
322 0.749908 0.250163 0.149576 15489.3
323 0.750914 0.350328 0.0497054 15489.3
324 0.650503 0.252147 0.248835 15489.3
325 0.648283 0.34913 0.348084 15489.3
326 0.751134 0.248565 0.348963 15489.3
327 0.748966 0.349289 0.250009 15489.3
328 0.649572 0.249038 0.451557 15489.3
329 0.650054 0.349365 0.549322 15489.3
330 0.750196 0.247941 0.548789 15489.3
331 0.751617 0.350041 0.450901 15489.3
332 0.648603 0.250068 0.649546 15489.3
333 0.650503 0.349882 0.749943 15489.3
334 0.750736 0.249173 0.749566 15489.3
335 0.751414 0.350689 0.650637 15489.3
336 0.64998 0.251103 0.847796 15489.3
337 0.649764 0.352489 0.949475 15489.3
338 0.748273 0.250333 0.950229 15489.3
339 0.750262 0.349272 0.851375 15489.3
340 0.650481 0.448225 0.0517328 15489.3
341 0.648004 0.550567 0.151137 15489.3
342 0.749687 0.448835 0.150613 15489.3
343 0.750348 0.551182 0.0521736 15489.3
344 0.651222 0.450267 0.251467 15489.3
345 0.651563 0.550205 0.350903 15489.3
346 0.749768 0.450093 0.351217 15489.3
347 0.749666 0.549968 0.250964 15489.3
348 0.650169 0.449077 0.450925 15489.3
349 0.651694 0.549328 0.551778 15489.3
350 0.749525 0.45038 0.550289 15489.3
351 0.75011 0.549452 0.449838 15489.3
352 0.650197 0.450442 0.649878 15489.3
353 0.649844 0.549937 0.750146 15489.3
354 0.749422 0.450627 0.749477 15489.3
355 0.750833 0.550978 0.650516 15489.3
356 0.650231 0.449554 0.8499 15489.3
357 0.650481 0.549771 0.949916 15489.3
358 0.750375 0.450534 0.951508 15489.3
359 0.750435 0.549667 0.850402 15489.3
360 0.647867 0.649943 0.0499282 15489.3
361 0.649284 0.751437 0.14888 15489.3
362 0.75015 0.649021 0.151164 15489.3
363 0.750265 0.750043 0.0492754 15489.3
364 0.649251 0.650815 0.250498 15489.3
365 0.64992 0.749045 0.350095 15489.3
366 0.7471 0.648262 0.351043 15489.3
367 0.749431 0.750157 0.249912 15489.3
368 0.649604 0.649585 0.449913 15489.3
369 0.650513 0.749647 0.550068 15489.3
370 0.749538 0.65026 0.55177 15489.3
371 0.74972 0.750183 0.451998 15489.3
372 0.649594 0.649436 0.651255 15489.3
373 0.649863 0.748874 0.749191 15489.3
374 0.749798 0.649719 0.750971 15489.3
375 0.749354 0.749586 0.6505 15489.3
376 0.649904 0.6482 0.848667 15489.3
377 0.651425 0.750046 0.950107 15489.3
378 0.749738 0.650457 0.950629 15489.3
379 0.750499 0.749562 0.851469 15489.3
380 0.649776 0.850162 0.0487087 15489.3
381 0.650768 0.949952 0.149386 15489.3
382 0.748817 0.84979 0.147418 15489.3
383 0.749974 0.950374 0.0512798 15489.3
384 0.649917 0.85174 0.251142 15489.3
385 0.652699 0.948606 0.348926 15489.3
386 0.749457 0.849689 0.347603 15489.3
387 0.749502 0.950499 0.249963 15489.3
388 0.648975 0.850255 0.451126 15489.3
389 0.649919 0.949221 0.550708 15489.3
390 0.751159 0.847839 0.550969 15489.3
391 0.748601 0.95132 0.450406 15489.3
392 0.648599 0.850514 0.65132 15489.3
393 0.648756 0.950047 0.750578 15489.3
394 0.748622 0.849011 0.749435 15489.3
395 0.75115 0.951308 0.65028 15489.3
396 0.649305 0.850094 0.850035 15489.3
397 0.649863 0.951283 0.949918 15489.3
398 0.751015 0.849664 0.949042 15489.3
399 0.75117 0.951928 0.849783 15489.3
400 0.851669 0.0513099 0.0507939 15489.3
401 0.848891 0.150859 0.15048 15489.3
402 0.949574 0.0485297 0.150432 15489.3
403 0.95083 0.148725 0.0508091 15489.3
404 0.851702 0.0495544 0.247412 15489.3
405 0.850564 0.149335 0.349106 15489.3
406 0.949396 0.0499048 0.351127 15489.3
407 0.950582 0.150836 0.251046 15489.3
408 0.851575 0.0493618 0.44993 15489.3
409 0.85059 0.149431 0.549821 15489.3
410 0.95017 0.0497884 0.548926 15489.3
411 0.949597 0.148969 0.450123 15489.3
412 0.851047 0.0494604 0.650586 15489.3
413 0.850802 0.150878 0.750878 15489.3
414 0.949744 0.0501055 0.749178 15489.3
415 0.95163 0.149073 0.648562 15489.3
416 0.849894 0.0504375 0.848736 15489.3
417 0.852102 0.150339 0.949621 15489.3
418 0.952023 0.0484599 0.951253 15489.3
419 0.949129 0.150709 0.849532 15489.3
420 0.851594 0.252291 0.0491684 15489.3
421 0.848118 0.349962 0.150504 15489.3
422 0.950261 0.249114 0.149917 15489.3
423 0.94909 0.349126 0.051385 15489.3
424 0.85202 0.250246 0.249511 15489.3
425 0.850135 0.348375 0.349445 15489.3
426 0.94911 0.249821 0.350715 15489.3
427 0.948788 0.352136 0.249349 15489.3
428 0.849846 0.251245 0.450413 15489.3
429 0.849422 0.350856 0.549934 15489.3
430 0.948578 0.250014 0.548432 15489.3
431 0.949412 0.351002 0.449817 15489.3
432 0.850271 0.248976 0.648693 15489.3
433 0.849468 0.348484 0.751044 15489.3
434 0.948847 0.250498 0.74826 15489.3
435 0.949623 0.351307 0.651699 15489.3
436 0.848325 0.250558 0.849798 15489.3
437 0.849886 0.34921 0.949821 15489.3
438 0.950286 0.249885 0.949866 15489.3
439 0.948798 0.350212 0.85237 15489.3
440 0.851292 0.450255 0.0492132 15489.3
441 0.849421 0.548888 0.150448 15489.3
442 0.949896 0.448912 0.150563 15489.3
443 0.947755 0.54951 0.0498789 15489.3
444 0.851331 0.448428 0.251064 15489.3
445 0.84994 0.550907 0.349871 15489.3
446 0.950018 0.448068 0.349161 15489.3
447 0.949706 0.5502 0.248559 15489.3
448 0.848826 0.451977 0.449783 15489.3
449 0.850523 0.549795 0.550962 15489.3
450 0.949394 0.450051 0.548387 15489.3
451 0.950075 0.548854 0.448707 15489.3
452 0.849873 0.450529 0.649774 15489.3
453 0.850572 0.550492 0.751266 15489.3
454 0.950589 0.449575 0.750648 15489.3
455 0.948265 0.550153 0.649614 15489.3
456 0.849706 0.451913 0.852359 15489.3
457 0.850889 0.550412 0.9504 15489.3
458 0.950347 0.449207 0.950252 15489.3
459 0.948798 0.548669 0.850658 15489.3
460 0.850711 0.647916 0.0508095 15489.3
461 0.849683 0.749004 0.150632 15489.3
462 0.94985 0.649549 0.149229 15489.3
463 0.94894 0.751509 0.0504641 15489.3
464 0.84992 0.652157 0.250515 15489.3
465 0.850409 0.750214 0.350227 15489.3
466 0.948537 0.65077 0.350665 15489.3
467 0.950081 0.751798 0.250842 15489.3
468 0.849115 0.650614 0.450505 15489.3
469 0.851037 0.749762 0.550813 15489.3
470 0.94897 0.651643 0.550798 15489.3
471 0.949595 0.747195 0.449419 15489.3
472 0.850911 0.649946 0.649063 15489.3
473 0.849948 0.75009 0.750373 15489.3
474 0.951089 0.650425 0.750957 15489.3
475 0.950368 0.7503 0.652181 15489.3
476 0.848985 0.649552 0.849842 15489.3
477 0.85025 0.749374 0.949619 15489.3
478 0.949161 0.648895 0.948842 15489.3
479 0.950851 0.750253 0.85019 15489.3
480 0.848614 0.851751 0.050918 15489.3
481 0.849331 0.951051 0.149338 15489.3
482 0.952277 0.852343 0.148699 15489.3
483 0.951756 0.949488 0.050136 15489.3
484 0.849078 0.84959 0.25025 15489.3
485 0.849553 0.949392 0.350527 15489.3
486 0.950551 0.8513 0.351451 15489.3
487 0.950624 0.951076 0.249323 15489.3
488 0.850625 0.850385 0.4485 15489.3
489 0.849225 0.950518 0.551056 15489.3
490 0.949855 0.85039 0.550442 15489.3
491 0.949636 0.950278 0.451002 15489.3
492 0.850287 0.848944 0.649118 15489.3
493 0.850308 0.949595 0.750425 15489.3
494 0.948832 0.850844 0.749656 15489.3
495 0.949831 0.951274 0.649245 15489.3
496 0.849969 0.848688 0.85157 15489.3
497 0.85044 0.950692 0.948372 15489.3
498 0.951602 0.84908 0.948285 15489.3
499 0.95137 0.950909 0.850298 15489.3
ITEM: TIMESTEP
0.0002
ITEM: NUMBER OF ATOMS
500
ITEM: BOX BOUNDS pp pp pp
0 1
0 1
0 1
ITEM: ATOMS id x y z E
0 0.0479717 0.0482276 0.0527009 15489.2
1 0.0510888 0.150715 0.151134 15489.2
2 0.149369 0.0466979 0.15022 15489.2
3 0.151076 0.147264 0.0482284 15489.2
4 0.0527893 0.0518049 0.247159 15489.2
5 0.0483227 0.151852 0.351823 15489.2
6 0.15252 0.0483363 0.350994 15489.2
7 0.150161 0.150738 0.252653 15489.2
8 0.049332 0.0505911 0.450593 15489.2
9 0.0490992 0.147125 0.551596 15489.2
10 0.150439 0.0485035 0.552826 15489.2
11 0.149802 0.150397 0.445805 15489.2
12 0.0490258 0.0518609 0.649906 15489.2
13 0.0469781 0.151092 0.748065 15489.2
14 0.145915 0.0545428 0.750227 15489.2
15 0.151412 0.149732 0.649475 15489.2
16 0.0498082 0.0492042 0.848529 15489.2
17 0.0531168 0.151027 0.950891 15489.2
18 0.152883 0.0543505 0.951578 15489.2
19 0.148462 0.148252 0.850999 15489.2
20 0.0533361 0.248704 0.0471743 15489.2
21 0.0475391 0.35007 0.151439 15489.2
22 0.15043 0.249428 0.151505 15489.2
23 0.149204 0.346625 0.0486486 15489.2
24 0.0497014 0.250068 0.24949 15489.2
25 0.0480081 0.347813 0.349899 15489.2
26 0.151367 0.250265 0.347053 15489.2
27 0.150765 0.352427 0.249442 15489.2
28 0.0526359 0.250937 0.452109 15489.2
29 0.0489293 0.350321 0.545523 15489.2
30 0.150537 0.249555 0.549235 15489.2
31 0.151265 0.350317 0.451504 15489.2
32 0.0470741 0.249677 0.648516 15489.2
33 0.0488277 0.345106 0.750812 15489.2
34 0.150242 0.250898 0.748174 15489.2
35 0.148084 0.353547 0.65188 15489.2
36 0.0470315 0.248525 0.84915 15489.2
37 0.0512842 0.350008 0.956744 15489.2
38 0.147613 0.250228 0.955111 15489.2
39 0.152644 0.352137 0.846772 15489.2
40 0.0472455 0.447044 0.0510846 15489.2
41 0.0487462 0.548594 0.147393 15489.2
42 0.146788 0.449595 0.15076 15489.2
43 0.14882 0.549903 0.0509061 15489.2
44 0.0507933 0.44806 0.252667 15489.2
45 0.0488894 0.552959 0.35203 15489.2
46 0.150181 0.451483 0.353141 15489.2
47 0.152953 0.548467 0.251839 15489.2
48 0.0519919 0.452186 0.447751 15489.2
49 0.050504 0.545358 0.550444 15489.2
50 0.151362 0.452726 0.55058 15489.2
51 0.149214 0.556437 0.452047 15489.2
52 0.0483388 0.454381 0.651678 15489.2
53 0.0490228 0.546782 0.751094 15489.2
54 0.154488 0.451755 0.750682 15489.2
55 0.150497 0.54777 0.650742 15489.2
56 0.0516295 0.450282 0.85391 15489.2
57 0.0506597 0.552812 0.947741 15489.2
58 0.149505 0.451795 0.949347 15489.2
59 0.146844 0.548436 0.848319 15489.2
60 0.0459359 0.647656 0.0496742 15489.2
61 0.0522867 0.748816 0.15099 15489.2
62 0.148715 0.649889 0.150963 15489.2
63 0.148828 0.751011 0.0483504 15489.2
64 0.051331 0.649442 0.246887 15489.2
65 0.0538852 0.75182 0.352028 15489.2
66 0.153161 0.652806 0.348399 15489.2
67 0.152302 0.748037 0.24997 15489.2
68 0.0495862 0.650378 0.45001 15489.2
69 0.0522856 0.748502 0.548332 15489.2
70 0.148747 0.650474 0.551458 15489.2
71 0.145533 0.749576 0.447845 15489.2
72 0.053033 0.650597 0.651021 15489.2
73 0.0495201 0.748596 0.746624 15489.2
74 0.152884 0.650806 0.748218 15489.2
75 0.152702 0.75301 0.645406 15489.2
76 0.0547802 0.651957 0.851556 15489.2
77 0.0501726 0.753758 0.949328 15489.2
78 0.152833 0.650871 0.946586 15489.2
79 0.152191 0.75242 0.847266 15489.2
80 0.0480176 0.848808 0.0516069 15489.2
81 0.049171 0.948985 0.152496 15489.2
82 0.148531 0.850087 0.147495 15489.2
83 0.149083 0.951359 0.053507 15489.2
84 0.0465736 0.848285 0.24953 15489.2
85 0.0509686 0.947616 0.353562 15489.2
86 0.151105 0.851611 0.352346 15489.2
87 0.148825 0.947595 0.252204 15489.2
88 0.0512638 0.852545 0.45266 15489.2
89 0.0485497 0.945559 0.5492 15489.2
90 0.14798 0.848013 0.54976 15489.2
91 0.15069 0.953924 0.452097 15489.2
92 0.0513688 0.848222 0.649915 15489.2
93 0.048919 0.948821 0.752357 15489.2
94 0.153919 0.846975 0.747743 15489.2
95 0.146862 0.94991 0.649292 15489.2
96 0.0499407 0.849619 0.850698 15489.2
97 0.0469256 0.95453 0.950354 15489.2
98 0.151736 0.84959 0.950134 15489.2
99 0.151323 0.945777 0.851876 15489.2
100 0.255005 0.0464204 0.0506277 15489.2
101 0.255237 0.150411 0.150498 15489.2
102 0.349875 0.0478625 0.151744 15489.2
103 0.351358 0.146289 0.0493519 15489.2
104 0.250968 0.0465952 0.246845 15489.2
105 0.24971 0.153319 0.34847 15489.2
106 0.350236 0.0484167 0.347324 15489.2
107 0.348973 0.152562 0.24703 15489.2
108 0.25055 0.0507793 0.446574 15489.2
109 0.248429 0.15263 0.549346 15489.2
110 0.351384 0.0533948 0.546806 15489.2
111 0.346437 0.151861 0.449594 15489.2
112 0.253942 0.0503948 0.649227 15489.2
113 0.249091 0.147365 0.753093 15489.2
114 0.352483 0.0506309 0.749796 15489.2
115 0.348348 0.14947 0.649185 15489.2
116 0.250936 0.0518234 0.846844 15489.2
117 0.249594 0.151656 0.949612 15489.2
118 0.347918 0.0506506 0.951807 15489.2
119 0.352024 0.15218 0.851586 15489.2
120 0.251563 0.24853 0.0500445 15489.2
121 0.25117 0.351644 0.151618 15489.2
122 0.351981 0.248741 0.15236 15489.2
123 0.352798 0.353089 0.0536019 15489.2
124 0.252899 0.249755 0.248915 15489.2
125 0.250307 0.349282 0.349522 15489.2
126 0.347474 0.25167 0.350581 15489.2
127 0.350361 0.346556 0.253131 15489.2
128 0.24698 0.249241 0.44579 15489.2
129 0.250408 0.35125 0.550186 15489.2
130 0.347848 0.248723 0.550742 15489.2
131 0.349849 0.348635 0.447174 15489.2
132 0.251181 0.247934 0.647631 15489.2
133 0.248176 0.352758 0.744734 15489.2
134 0.352109 0.249241 0.750382 15489.2
135 0.350795 0.348354 0.650374 15489.2
136 0.250972 0.251093 0.848414 15489.2
137 0.249974 0.348108 0.946769 15489.2
138 0.351888 0.252767 0.95193 15489.2
139 0.348477 0.346818 0.84825 15489.2
140 0.249943 0.452942 0.0517008 15489.2
141 0.24967 0.549046 0.150691 15489.2
142 0.349675 0.452574 0.149212 15489.2
143 0.350386 0.548973 0.05189 15489.2
144 0.246977 0.449991 0.250048 15489.2
145 0.250985 0.549218 0.348921 15489.2
146 0.352906 0.452923 0.352637 15489.2
147 0.353765 0.548726 0.249223 15489.2
148 0.253522 0.453542 0.450779 15489.2
149 0.250174 0.552848 0.554225 15489.2
150 0.351946 0.449622 0.552488 15489.2
151 0.350103 0.550052 0.452631 15489.2
152 0.243599 0.45192 0.648107 15489.2
153 0.252385 0.548822 0.747983 15489.2
154 0.35216 0.451787 0.749643 15489.2
155 0.352016 0.548993 0.649255 15489.2
156 0.249571 0.450872 0.850248 15489.2
157 0.250679 0.547702 0.947812 15489.2
158 0.352319 0.449952 0.951103 15489.2
159 0.352013 0.55212 0.847951 15489.2
160 0.251544 0.651702 0.0518079 15489.2
161 0.247755 0.749404 0.151998 15489.2
162 0.349615 0.647196 0.146764 15489.2
163 0.349501 0.749677 0.0519122 15489.2
164 0.24747 0.651752 0.247209 15489.2
165 0.24772 0.749009 0.348972 15489.2
166 0.348505 0.648915 0.350497 15489.2
167 0.352111 0.747289 0.248163 15489.2
168 0.245659 0.651508 0.447567 15489.2
169 0.245487 0.748298 0.548655 15489.2
170 0.350336 0.651031 0.547458 15489.2
171 0.353243 0.747588 0.450896 15489.2
172 0.245327 0.650751 0.651574 15489.2
173 0.248434 0.747046 0.750678 15489.2
174 0.350123 0.652184 0.749909 15489.2
175 0.350806 0.750011 0.647694 15489.2
176 0.250498 0.650205 0.85047 15489.2
177 0.25043 0.745414 0.950163 15489.2
178 0.346893 0.652127 0.950353 15489.2
179 0.347539 0.745786 0.853884 15489.2
180 0.249484 0.849813 0.0500437 15489.2
181 0.2516 0.949201 0.148427 15489.2
182 0.350384 0.850741 0.151289 15489.2
183 0.347102 0.950444 0.0481516 15489.2
184 0.25198 0.849318 0.248274 15489.2
185 0.253661 0.951001 0.34867 15489.2
186 0.348489 0.85255 0.352777 15489.2
187 0.349009 0.948322 0.248983 15489.2
188 0.249651 0.851251 0.450219 15489.2
189 0.248746 0.947791 0.549001 15489.2
190 0.350254 0.850982 0.550617 15489.2
191 0.353626 0.948684 0.45035 15489.2
192 0.248392 0.84941 0.651946 15489.2
193 0.250769 0.950094 0.752025 15489.2
194 0.352758 0.849038 0.748448 15489.2
195 0.347521 0.949142 0.648857 15489.2
196 0.250567 0.84884 0.847911 15489.2
197 0.252402 0.950272 0.94964 15489.2
198 0.351788 0.850603 0.949079 15489.2
199 0.348949 0.943732 0.847495 15489.2
200 0.447095 0.0507228 0.0508189 15489.2
201 0.45042 0.147762 0.152311 15489.2
202 0.54791 0.0557703 0.147139 15489.2
203 0.54752 0.148504 0.0505726 15489.2
204 0.453823 0.0500384 0.250553 15489.2
205 0.450377 0.152551 0.346065 15489.2
206 0.553222 0.0487837 0.354383 15489.2
207 0.550237 0.150638 0.251375 15489.2
208 0.454065 0.0464359 0.450302 15489.2
209 0.449046 0.147363 0.547423 15489.2
210 0.548214 0.0504483 0.547896 15489.2
211 0.551356 0.145742 0.449884 15489.2
212 0.447572 0.0502462 0.646541 15489.2
213 0.450164 0.148358 0.750406 15489.2
214 0.55089 0.0515613 0.751601 15489.2
215 0.549461 0.14864 0.648595 15489.2
216 0.448264 0.0505942 0.850321 15489.2
217 0.452779 0.152665 0.950569 15489.2
218 0.549105 0.0471853 0.948674 15489.2
219 0.549886 0.149006 0.849616 15489.2
220 0.449397 0.249524 0.053965 15489.2
221 0.448115 0.350668 0.147168 15489.2
222 0.552967 0.253776 0.1495 15489.2
223 0.549842 0.348991 0.0527585 15489.2
224 0.448922 0.249278 0.246167 15489.2
225 0.448353 0.350706 0.352034 15489.2
226 0.549158 0.252452 0.349943 15489.2
227 0.551011 0.350298 0.248876 15489.2
228 0.451614 0.251858 0.453157 15489.2
229 0.452374 0.351016 0.551424 15489.2
230 0.550146 0.248637 0.553672 15489.2
231 0.5533 0.35036 0.451439 15489.2
232 0.449541 0.247377 0.651063 15489.2
233 0.449443 0.348743 0.751825 15489.2
234 0.547621 0.250465 0.747952 15489.2
235 0.553329 0.34887 0.647987 15489.2
236 0.447239 0.251912 0.852903 15489.2
237 0.448152 0.349914 0.950336 15489.2
238 0.547468 0.250456 0.952081 15489.2
239 0.550586 0.345434 0.847951 15489.2
240 0.450163 0.450245 0.0509266 15489.2
241 0.450933 0.550486 0.153649 15489.2
242 0.551356 0.450281 0.152136 15489.2
243 0.54874 0.551852 0.0507241 15489.2
244 0.451813 0.447822 0.250128 15489.2
245 0.452776 0.548809 0.348158 15489.2
246 0.547564 0.451185 0.350216 15489.2
247 0.552153 0.547678 0.252061 15489.2
248 0.453561 0.452499 0.450311 15489.2
249 0.451461 0.551666 0.550667 15489.2
250 0.55252 0.447653 0.550231 15489.2
251 0.549591 0.551417 0.450258 15489.2
252 0.449253 0.448058 0.649325 15489.2
253 0.448531 0.551699 0.753749 15489.2
254 0.54779 0.45055 0.746649 15489.2
255 0.550578 0.552473 0.650008 15489.2
256 0.452386 0.44854 0.849501 15489.2
257 0.450767 0.550896 0.951198 15489.2
258 0.552435 0.44614 0.949613 15489.2
259 0.551816 0.549235 0.849759 15489.2
260 0.453415 0.64998 0.0478135 15489.2
261 0.450892 0.748977 0.150995 15489.2
262 0.549714 0.650431 0.150155 15489.2
263 0.550717 0.748589 0.0456223 15489.2
264 0.451708 0.653574 0.25148 15489.2
265 0.451195 0.752214 0.3479 15489.2
266 0.551557 0.651184 0.352305 15489.2
267 0.550183 0.749769 0.251898 15489.2
268 0.448651 0.647657 0.451599 15489.2