ITEM: TIMESTEP
0
ITEM: NUMBER OF ATOMS
64
ITEM: BOX BOUNDS pp pp pp
0 100
0 100
0 100
ITEM: ATOMS id x y z E
0 12.5 12.5 12.5 0
1 37.5 12.5 12.5 0
2 62.5 12.5 12.5 0
3 87.5 12.5 12.5 0
4 12.5 37.5 12.5 0
5 37.5 37.5 12.5 0
6 62.5 37.5 12.5 0
7 87.5 37.5 12.5 0
8 12.5 62.5 12.5 0
9 37.5 62.5 12.5 0
10 62.5 62.5 12.5 0
11 87.5 62.5 12.5 0
12 12.5 87.5 12.5 0
13 37.5 87.5 12.5 0
14 62.5 87.5 12.5 0
15 87.5 87.5 12.5 0
16 12.5 12.5 37.5 0
17 37.5 12.5 37.5 0
18 62.5 12.5 37.5 0
19 87.5 12.5 37.5 0
20 12.5 37.5 37.5 0
21 37.5 37.5 37.5 0
22 62.5 37.5 37.5 0
23 87.5 37.5 37.5 0
24 12.5 62.5 37.5 0
25 37.5 62.5 37.5 0
26 62.5 62.5 37.5 0
27 87.5 62.5 37.5 0
28 12.5 87.5 37.5 0
29 37.5 87.5 37.5 0
30 62.5 87.5 37.5 0
31 87.5 87.5 37.5 0
32 12.5 12.5 62.5 0
33 37.5 12.5 62.5 0
34 62.5 12.5 62.5 0
35 87.5 12.5 62.5 0
36 12.5 37.5 62.5 0
37 37.5 37.5 62.5 0
38 62.5 37.5 62.5 0
39 87.5 37.5 62.5 0
40 12.5 62.5 62.5 0
41 37.5 62.5 62.5 0
42 62.5 62.5 62.5 0
43 87.5 62.5 62.5 0
44 12.5 87.5 62.5 0
45 37.5 87.5 62.5 0
46 62.5 87.5 62.5 0
47 87.5 87.5 62.5 0
48 12.5 12.5 87.5 0
49 37.5 12.5 87.5 0
50 62.5 12.5 87.5 0
51 87.5 12.5 87.5 0
52 12.5 37.5 87.5 0
53 37.5 37.5 87.5 0
54 62.5 37.5 87.5 0
55 87.5 37.5 87.5 0
56 12.5 62.5 87.5 0
57 37.5 62.5 87.5 0
58 62.5 62.5 87.5 0
59 87.5 62.5 87.5 0
60 12.5 87.5 87.5 0
61 37.5 87.5 87.5 0
62 62.5 87.5 87.5 0
63 87.5 87.5 87.5 0
ITEM: TIMESTEP
0
ITEM: NUMBER OF ATOMS
64
ITEM: BOX BOUNDS pp pp pp
0 100
0 100
0 100
ITEM: ATOMS id x y z E
0 12.5149 12.5201 12.5158 -188.037
1 37.5099 12.4939 12.5032 -188.037
2 62.5153 12.4734 12.5007 -188.037
3 87.4893 12.5041 12.4967 -188.037
4 12.5045 37.5122 12.53 -188.037
5 37.4882 37.4985 12.4935 -188.037
6 62.5 37.5023 12.5042 -188.037
7 87.4924 37.4874 12.4868 -188.037
8 12.4908 62.4836 12.5038 -188.037
9 37.5099 62.4958 12.5036 -188.037
10 62.4962 62.4954 12.501 -188.037
11 87.4908 62.4844 12.5083 -188.037
12 12.4841 87.5092 12.516 -188.037
13 37.4966 87.4924 12.4891 -188.037
14 62.5004 87.4985 12.5096 -188.037
15 87.5107 87.4977 12.5 -188.037
16 12.4987 12.5166 37.5 -188.037
17 37.4779 12.4911 37.492 -188.037
18 62.5111 12.5031 37.4962 -188.037
19 87.5153 12.508 37.4969 -188.037
20 12.4878 37.5019 37.4813 -188.037
21 37.5141 37.5065 37.5107 -188.037
22 62.4973 37.4966 37.5042 -188.037
23 87.4947 37.5248 37.513 -188.037
24 12.5181 62.505 37.5011 -188.037
25 37.4905 62.4989 37.4943 -188.037
26 62.4966 62.5076 37.5076 -188.037
27 87.5015 62.5042 37.5256 -188.037
28 12.4964 87.4908 37.5031 -188.037
29 37.4897 87.5076 37.4981 -188.037
30 62.5118 87.4939 37.5023 -188.037
31 87.4962 87.4977 37.4882 -188.037
32 12.5064 12.4916 62.5027 -188.037
33 37.5 12.4856 62.4973 -188.037
34 62.4886 12.4802 62.4832 -188.037
35 87.4969 12.5118 62.4901 -188.037
36 12.4769 37.505 62.4889 -188.037
37 37.4931 37.5069 62.4943 -188.037
38 62.5072 37.4813 62.5027 -188.037
39 87.5153 37.4851 62.4855 -188.037
40 12.489 62.5065 62.5065 -188.037
41 37.4836 62.4973 62.4886 -188.037
42 62.4908 62.5038 62.5 -188.037
43 87.4901 62.4962 62.5 -188.037
44 12.5023 87.5107 62.4992 -188.037
45 37.5214 87.4947 62.5027 -188.037
46 62.4977 87.487 62.5023 -188.037
47 87.4954 87.4985 62.5069 -188.037
48 12.4842 12.4952 87.5046 -188.037
49 37.4943 12.4997 87.5031 -188.037
50 62.4931 12.5202 87.5023 -188.037
51 87.4977 12.4988 87.4939 -188.037
52 12.4914 37.4855 87.5061 -188.037
53 37.5061 37.5191 87.5092 -188.037
54 62.4931 37.5027 87.4977 -188.037
55 87.4863 37.479 87.4985 -188.037
56 12.499 62.5175 87.4947 -188.037
57 37.4985 62.5099 87.4947 -188.037
58 62.5057 62.5069 87.5107 -188.037
59 87.4855 62.4882 87.5092 -188.037
60 12.5014 87.5038 87.4931 -188.037
61 37.4981 87.4893 87.4809 -188.037
62 62.5118 87.5153 87.4977 -188.037
63 87.4893 87.4825 87.4977 -188.037
ITEM: TIMESTEP
0.01
ITEM: NUMBER OF ATOMS
64
ITEM: BOX BOUNDS pp pp pp
0 100
0 100
0 100
ITEM: ATOMS id x y z E
0 12.5298 12.5402 12.5317 -188.038
1 37.5198 12.4878 12.5065 -188.038
2 62.5305 12.4468 12.5013 -188.038
3 87.4786 12.5082 12.4933 -188.038
4 12.509 37.5244 12.5601 -188.038
5 37.4763 37.4969 12.487 -188.038
6 62.5 37.5046 12.5084 -188.038
7 87.4847 37.4748 12.4737 -188.038
8 12.4817 62.4672 12.5076 -188.038
9 37.5198 62.4916 12.5072 -188.038
10 62.4924 62.4908 12.5019 -188.038
11 87.4817 62.4687 12.5166 -188.038
12 12.4681 87.5183 12.532 -188.038
13 37.4931 87.4847 12.4783 -188.038
14 62.5008 87.4969 12.5193 -188.038
15 87.5214 87.4954 12.5 -188.038
16 12.4973 12.5332 37.5 -188.038
17 37.4557 12.4823 37.484 -188.038
18 62.5221 12.5061 37.4924 -188.038
19 87.5305 12.516 37.4939 -188.038
20 12.4756 37.5038 37.4626 -188.038
21 37.5282 37.513 37.5214 -188.038
22 62.4947 37.4931 37.5084 -188.038
23 87.4893 37.5496 37.5259 -188.038
24 12.5362 62.5099 37.5023 -188.038
25 37.4809 62.4977 37.4886 -188.038
26 62.4931 62.5153 37.5153 -188.038
27 87.5031 62.5084 37.5511 -188.038
28 12.4928 87.4817 37.5061 -188.038
29 37.4794 87.5153 37.4962 -188.038
30 62.5237 87.4878 37.5046 -188.038
31 87.4924 87.4954 37.4763 -188.038
32 12.5128 12.4832 62.5053 -188.038
33 37.5 12.4712 62.4947 -188.038
34 62.4771 12.4603 62.4664 -188.038
35 87.4939 12.5237 62.4802 -188.038
36 12.4538 37.5099 62.4779 -188.038
37 37.4863 37.5137 62.4886 -188.038
38 62.5145 37.4626 62.5053 -188.038
39 87.5305 37.4702 62.471 -188.038
40 12.4781 62.513 62.513 -188.038
41 37.4672 62.4947 62.4771 -188.038
42 62.4817 62.5076 62.5 -188.038
43 87.4802 62.4924 62.5 -188.038
44 12.5046 87.5214 62.4985 -188.038
45 37.5427 87.4893 62.5053 -188.038
46 62.4954 87.4741 62.5046 -188.038
47 87.4908 87.4969 62.5137 -188.038
48 12.4683 12.4905 87.5092 -188.038
49 37.4886 12.4994 87.5061 -188.038
50 62.4863 12.5404 87.5046 -188.038
51 87.4954 12.4975 87.4878 -188.038
52 12.4828 37.471 87.5122 -188.038
53 37.5122 37.5381 87.5183 -188.038
54 62.4863 37.5053 87.4954 -188.038
55 87.4725 37.458 87.4969 -188.038
56 12.4979 62.5351 87.4893 -188.038
57 37.4969 62.5198 87.4893 -188.038
58 62.5114 62.5137 87.5214 -188.038
59 87.471 62.4763 87.5183 -188.038
60 12.5029 87.5076 87.4863 -188.038
61 37.4962 87.4786 87.4619 -188.038
62 62.5237 87.5305 87.4954 -188.038
63 87.4786 87.4649 87.4954 -188.038
ITEM: TIMESTEP
0.02
ITEM: NUMBER OF ATOMS
64
ITEM: BOX BOUNDS pp pp pp
0 100
0 100
0 100
ITEM: ATOMS id x y z E
0 12.5446 12.5604 12.5475 -188.037
1 37.5298 12.4817 12.5097 -188.037
2 62.5458 12.4202 12.502 -188.037
3 87.468 12.5123 12.49 -188.037
4 12.5134 37.5366 12.5901 -188.037
5 37.4645 37.4954 12.4805 -188.037
6 62.5 37.5069 12.5126 -188.037
7 87.4771 37.4622 12.4605 -188.037
8 12.4725 62.4508 12.5114 -188.037
9 37.5298 62.4874 12.5109 -188.037
10 62.4886 62.4863 12.5029 -188.037
11 87.4725 62.4531 12.5249 -188.037
12 12.4522 87.5275 12.5481 -188.037
13 37.4897 87.4771 12.4674 -188.037
14 62.5011 87.4954 12.5289 -188.037
15 87.532 87.4931 12.5 -188.037
16 12.496 12.5498 37.5 -188.037
17 37.4336 12.4734 37.476 -188.037
18 62.5332 12.5092 37.4886 -188.037
19 87.5458 12.524 37.4908 -188.037
20 12.4634 37.5057 37.4439 -188.037
21 37.5423 37.5195 37.532 -188.037
22 62.492 37.4897 37.5126 -188.037
23 87.484 37.5744 37.5389 -188.037
24 12.5544 62.5149 37.5034 -188.037
25 37.4714 62.4966 37.4828 -188.037
26 62.4897 62.5229 37.5229 -188.037
27 87.5046 62.5126 37.5767 -188.037
28 12.4891 87.4725 37.5092 -188.037
29 37.4691 87.5229 37.4943 -188.037
30 62.5355 87.4817 37.5069 -188.037
31 87.4886 87.4931 37.4645 -188.037
32 12.5192 12.4748 62.508 -188.037
33 37.5 12.4568 62.492 -188.037
34 62.4657 12.4405 62.4496 -188.037
35 87.4908 12.5355 62.4702 -188.037
36 12.4308 37.5149 62.4668 -188.037
37 37.4794 37.5206 62.4828 -188.037
38 62.5217 37.4439 62.508 -188.037
39 87.5458 37.4554 62.4565 -188.037
40 12.4671 62.5195 62.5195 -188.037
41 37.4508 62.492 62.4657 -188.037
42 62.4725 62.5114 62.5 -188.037
43 87.4702 62.4886 62.5 -188.037
44 12.5069 87.532 62.4977 -188.037
45 37.5641 87.484 62.508 -188.037
46 62.4931 87.4611 62.5069 -188.037
47 87.4863 87.4954 62.5206 -188.037
48 12.4525 12.4857 87.5137 -188.037
49 37.4828 12.4991 87.5092 -188.037
50 62.4794 12.5607 87.5069 -188.037
51 87.4931 12.4963 87.4817 -188.037
52 12.4743 37.4565 87.5183 -188.037
53 37.5183 37.5572 87.5275 -188.037
54 62.4794 37.508 87.4931 -188.037
55 87.4588 37.4371 87.4954 -188.037
56 12.4969 62.5526 87.484 -188.037
57 37.4954 62.5298 87.484 -188.037
58 62.5172 62.5206 87.532 -188.037
59 87.4565 62.4645 87.5275 -188.037
60 12.5043 87.5114 87.4794 -188.037
61 37.4943 87.468 87.4428 -188.037
62 62.5355 87.5458 87.4931 -188.037
63 87.468 87.4474 87.4931 -188.037
ITEM: TIMESTEP
0.03
ITEM: NUMBER OF ATOMS
64
ITEM: BOX BOUNDS pp pp pp
0 100
0 100
0 100
ITEM: ATOMS id x y z E
0 12.5595 12.5805 12.5633 -188.037
1 37.5397 12.4756 12.513 -188.037
2 62.561 12.3936 12.5027 -188.037
3 87.4573 12.5164 12.4866 -188.037
4 12.5179 37.5488 12.6202 -188.037
5 37.4527 37.4939 12.4741 -188.037
6 62.5 37.5092 12.5168 -188.037
7 87.4695 37.4496 12.4474 -188.037
8 12.4634 62.4344 12.5153 -188.037
9 37.5397 62.4832 12.5145 -188.037
10 62.4847 62.4817 12.5038 -188.037
11 87.4634 62.4374 12.5332 -188.037
12 12.4363 87.5366 12.5641 -188.037
13 37.4863 87.4695 12.4565 -188.037
14 62.5015 87.4939 12.5385 -188.037
15 87.5427 87.4908 12.5 -188.037
16 12.4947 12.5664 37.5 -188.037
17 37.4115 12.4645 37.468 -188.037
18 62.5443 12.5122 37.4847 -188.037
19 87.561 12.532 37.4878 -188.037
20 12.4512 37.5076 37.4252 -188.037
21 37.5565 37.5259 37.5427 -188.037
22 62.4893 37.4863 37.5168 -188.037
23 87.4786 37.5992 37.5519 -188.037
24 12.5725 62.5198 37.5046 -188.037
25 37.4619 62.4954 37.4771 -188.037
26 62.4863 62.5305 37.5305 -188.037
27 87.5061 62.5168 37.6022 -188.037
28 12.4855 87.4634 37.5122 -188.037
29 37.4588 87.5305 37.4924 -188.037
30 62.5473 87.4756 37.5092 -188.037
31 87.4847 87.4908 37.4527 -188.037
32 12.5256 12.4664 62.5107 -188.037
33 37.5 12.4424 62.4893 -188.037
34 62.4542 12.4207 62.4329 -188.037
35 87.4878 12.5473 62.4603 -188.037
36 12.4077 37.5198 62.4557 -188.037
37 37.4725 37.5275 62.4771 -188.037
38 62.529 37.4252 62.5107 -188.037
39 87.561 37.4405 62.442 -188.037
40 12.4561 62.5259 62.5259 -188.037
41 37.4344 62.4893 62.4542 -188.037
42 62.4634 62.5153 62.5 -188.037
43 87.4603 62.4847 62.5 -188.037
44 12.5092 87.5427 62.4969 -188.037
45 37.5854 87.4786 62.5107 -188.037
46 62.4908 87.4481 62.5092 -188.037
47 87.4817 87.4939 62.5275 -188.037
48 12.4367 12.4809 87.5183 -188.037
49 37.4771 12.4989 87.5122 -188.037
50 62.4725 12.5809 87.5092 -188.037
51 87.4908 12.495 87.4756 -188.037
52 12.4657 37.442 87.5244 -188.037
53 37.5244 37.5763 87.5366 -188.037
54 62.4725 37.5107 87.4908 -188.037
55 87.4451 37.4161 87.4939 -188.037
56 12.4958 62.5702 87.4786 -188.037
57 37.4939 62.5397 87.4786 -188.037
58 62.5229 62.5275 87.5427 -188.037
59 87.442 62.4527 87.5366 -188.037
60 12.5057 87.5153 87.4725 -188.037
61 37.4924 87.4573 87.4237 -188.037
62 62.5473 87.561 87.4908 -188.037
63 87.4573 87.4298 87.4908 -188.037
ITEM: TIMESTEP
0.04
ITEM: NUMBER OF ATOMS
64
ITEM: BOX BOUNDS pp pp pp
0 100
0 100
0 100
ITEM: ATOMS id x y z E
0 12.5744 12.6006 12.5792 -188.037
1 37.5496 12.4695 12.5162 -188.037
2 62.5763 12.367 12.5033 -188.037
3 87.4466 12.5205 12.4833 -188.037
4 12.5224 37.561 12.6502 -188.037
5 37.4409 37.4924 12.4676 -188.037
6 62.5 37.5114 12.521 -188.037
7 87.4619 37.4371 12.4342 -188.037
8 12.4542 62.418 12.5191 -188.037
9 37.5496 62.479 12.5181 -188.037
10 62.4809 62.4771 12.5048 -188.037
11 87.4542 62.4218 12.5415 -188.037
12 12.4204 87.5458 12.5801 -188.037
13 37.4828 87.4619 12.4456 -188.037
14 62.5019 87.4924 12.5482 -188.037
15 87.5534 87.4886 12.5 -188.037
16 12.4933 12.583 37.5 -188.037
17 37.3894 12.4557 37.4599 -188.037
18 62.5553 12.5153 37.4809 -188.037
19 87.5763 12.5401 37.4847 -188.037
20 12.439 37.5095 37.4065 -188.037
21 37.5706 37.5324 37.5534 -188.037
22 62.4866 37.4828 37.521 -188.037
23 87.4733 37.624 37.5648 -188.037
24 12.5906 62.5248 37.5057 -188.037
25 37.4523 62.4943 37.4714 -188.037
26 62.4828 62.5381 37.5381 -188.037
27 87.5076 62.521 37.6278 -188.037
28 12.4819 87.4542 37.5153 -188.037
29 37.4485 87.5381 37.4905 -188.037
30 62.5591 87.4695 37.5114 -188.037
31 87.4809 87.4886 37.4409 -188.037
32 12.5319 12.458 62.5134 -188.037
33 37.5 12.428 62.4866 -188.037
34 62.4428 12.4008 62.4161 -188.037
35 87.4847 12.5591 62.4504 -188.037
36 12.3846 37.5248 62.4447 -188.037
37 37.4657 37.5343 62.4714 -188.037
38 62.5362 37.4065 62.5134 -188.037
39 87.5763 37.4256 62.4275 -188.037
40 12.4452 62.5324 62.5324 -188.037
41 37.418 62.4866 62.4428 -188.037
42 62.4542 62.5191 62.5 -188.037
43 87.4504 62.4809 62.5 -188.037
44 12.5114 87.5534 62.4962 -188.037
45 37.6068 87.4733 62.5134 -188.037
46 62.4886 87.4352 62.5114 -188.037
47 87.4771 87.4924 62.5343 -188.037
48 12.4208 12.4762 87.5229 -188.037
49 37.4714 12.4986 87.5153 -188.037
50 62.4657 12.6011 87.5114 -188.037
51 87.4886 12.4938 87.4695 -188.037
52 12.4571 37.4275 87.5305 -188.037
53 37.5305 37.5954 87.5458 -188.037
54 62.4657 37.5134 87.4886 -188.037
55 87.4313 37.3951 87.4924 -188.037
56 12.4948 62.5877 87.4733 -188.037
57 37.4924 62.5496 87.4733 -188.037
58 62.5286 62.5343 87.5534 -188.037
59 87.4275 62.4409 87.5458 -188.037
60 12.5072 87.5191 87.4657 -188.037
61 37.4905 87.4466 87.4046 -188.037
62 62.5591 87.5763 87.4886 -188.037
63 87.4466 87.4123 87.4886 -188.037
ITEM: TIMESTEP
0.05
ITEM: NUMBER OF ATOMS
64
ITEM: BOX BOUNDS pp pp pp
0 100
0 100
0 100
ITEM: ATOMS id x y z E
0 12.5893 12.6207 12.595 -188.037
1 37.5595 12.4634 12.5195 -188.037
2 62.5916 12.3404 12.504 -188.037
3 87.4359 12.5246 12.48 -188.037
4 12.5269 37.5732 12.6802 -188.037
5 37.429 37.4908 12.4611 -188.037
6 62.5 37.5137 12.5252 -188.037
7 87.4542 37.4245 12.421 -188.037
8 12.4451 62.4016 12.5229 -188.037
9 37.5595 62.4748 12.5217 -188.037
10 62.4771 62.4725 12.5057 -188.037
11 87.4451 62.4062 12.5498 -188.037
12 12.4044 87.5549 12.5961 -188.037
13 37.4794 87.4542 12.4348 -188.037
14 62.5023 87.4908 12.5578 -188.037
15 87.5641 87.4863 12.5 -188.037
16 12.492 12.5996 37.5 -188.037
17 37.3672 12.4468 37.4519 -188.037
18 62.5664 12.5183 37.4771 -188.037
19 87.5916 12.5481 37.4817 -188.037
20 12.4268 37.5114 37.3878 -188.037
21 37.5847 37.5389 37.5641 -188.037
22 62.484 37.4794 37.5252 -188.037
23 87.468 37.6488 37.5778 -188.037
24 12.6087 62.5298 37.5069 -188.037
25 37.4428 62.4931 37.4657 -188.037
26 62.4794 62.5458 37.5458 -188.037
27 87.5092 62.5252 37.6534 -188.037
28 12.4783 87.4451 37.5183 -188.037
29 37.4382 87.5458 37.4886 -188.037
30 62.571 87.4634 37.5137 -188.037
31 87.4771 87.4863 37.429 -188.037
32 12.5383 12.4496 62.516 -188.037
33 37.5 12.4136 62.484 -188.037
34 62.4313 12.381 62.3993 -188.037
35 87.4817 12.571 62.4405 -188.037
36 12.3615 37.5298 62.4336 -188.037
37 37.4588 37.5412 62.4657 -188.037
38 62.5435 37.3878 62.516 -188.037
39 87.5916 37.4107 62.413 -188.037
40 12.4342 62.5389 62.5389 -188.037
41 37.4016 62.484 62.4313 -188.037
42 62.4451 62.5229 62.5 -188.037
43 87.4405 62.4771 62.5 -188.037
44 12.5137 87.5641 62.4954 -188.037
45 37.6282 87.468 62.516 -188.037
46 62.4863 87.4222 62.5137 -188.037
47 87.4725 87.4908 62.5412 -188.037
48 12.405 12.4714 87.5275 -188.037
49 37.4657 12.4983 87.5183 -188.037
50 62.4588 12.6213 87.5137 -188.037
51 87.4863 12.4926 87.4634 -188.037
52 12.4485 37.413 87.5366 -188.037
53 37.5366 37.6144 87.5549 -188.037
54 62.4588 37.516 87.4863 -188.037
55 87.4176 37.3741 87.4908 -188.037
56 12.4937 62.6053 87.468 -188.037
57 37.4908 62.5595 87.468 -188.037
58 62.5343 62.5412 87.5641 -188.037
59 87.413 62.429 87.5549 -188.037
60 12.5086 87.5229 87.4588 -188.037
61 37.4886 87.4359 87.3856 -188.037
62 62.571 87.5916 87.4863 -188.037
63 87.4359 87.3947 87.4863 -188.037
ITEM: TIMESTEP
0.06
ITEM: NUMBER OF ATOMS
64
ITEM: BOX BOUNDS pp pp pp
0 100
0 100
0 100
ITEM: ATOMS id x y z E
0 12.6041 12.6409 12.6108 -188.037
1 37.5694 12.4573 12.5227 -188.037
2 62.6068 12.3137 12.5047 -188.037
3 87.4252 12.5287 12.4766 -188.037
4 12.5314 37.5854 12.7103 -188.037
5 37.4172 37.4893 12.4546 -188.037
6 62.5 37.516 12.5294 -188.037
7 87.4466 37.4119 12.4079 -188.037
8 12.4359 62.3852 12.5267 -188.037
9 37.5694 62.4706 12.5254 -188.037
10 62.4733 62.468 12.5067 -188.037
11 87.4359 62.3905 12.5581 -188.037
12 12.3885 87.5641 12.6122 -188.037
13 37.476 87.4466 12.4239 -188.037
14 62.5027 87.4893 12.5674 -188.037
15 87.5748 87.484 12.5 -188.037
16 12.4907 12.6162 37.5 -188.037
17 37.3451 12.4379 37.4439 -188.037
18 62.5774 12.5214 37.4733 -188.037
19 87.6068 12.5561 37.4786 -188.037
20 12.4146 37.5134 37.3692 -188.037
21 37.5988 37.5454 37.5748 -188.037
22 62.4813 37.476 37.5294 -188.037
23 87.4626 37.6736 37.5908 -188.037
24 12.6268 62.5347 37.508 -188.037
25 37.4332 62.492 37.4599 -188.037
26 62.476 62.5534 37.5534 -188.037
27 87.5107 62.5294 37.6789 -188.037
28 12.4746 87.4359 37.5214 -188.037
29 37.4279 87.5534 37.4866 -188.037
30 62.5828 87.4573 37.516 -188.037
31 87.4733 87.484 37.4172 -188.037
32 12.5447 12.4413 62.5187 -188.037
33 37.5 12.3992 62.4813 -188.037
34 62.4199 12.3611 62.3825 -188.037
35 87.4786 12.5828 62.4306 -188.037
36 12.3384 37.5347 62.4226 -188.037
37 37.4519 37.5481 62.4599 -188.037
38 62.5507 37.3692 62.5187 -188.037
39 87.6068 37.3959 62.3985 -188.037
40 12.4232 62.5454 62.5454 -188.037
41 37.3852 62.4813 62.4199 -188.037
42 62.4359 62.5267 62.5 -188.037
43 87.4306 62.4733 62.5 -188.037
44 12.516 87.5748 62.4947 -188.037
45 37.6495 87.4626 62.5187 -188.037
46 62.484 87.4092 62.516 -188.037
47 87.468 87.4893 62.5481 -188.037
48 12.3892 12.4666 87.532 -188.037
49 37.4599 12.498 87.5214 -188.037
50 62.4519 12.6415 87.516 -188.037
51 87.484 12.4913 87.4573 -188.037
52 12.4399 37.3985 87.5427 -188.037
53 37.5427 37.6335 87.5641 -188.037
54 62.4519 37.5187 87.484 -188.037
55 87.4039 37.3531 87.4893 -188.037
56 12.4927 62.6228 87.4626 -188.037
57 37.4893 62.5694 87.4626 -188.037
58 62.5401 62.5481 87.5748 -188.037
59 87.3985 62.4172 87.5641 -188.037
60 12.51 87.5267 87.4519 -188.037
61 37.4866 87.4252 87.3665 -188.037
62 62.5828 87.6068 87.484 -188.037
63 87.4252 87.3772 87.484 -188.037
ITEM: TIMESTEP
0.07
ITEM: NUMBER OF ATOMS
64
ITEM: BOX BOUNDS pp pp pp
0 100
0 100
0 100
ITEM: ATOMS id x y z E
0 12.619 12.661 12.6266 -188.037
1 37.5793 12.4512 12.5259 -188.037
2 62.6221 12.2872 12.5053 -188.037
3 87.4146 12.5328 12.4733 -188.037
4 12.5359 37.5977 12.7403 -188.037
5 37.4054 37.4878 12.4481 -188.037
6 62.5 37.5183 12.5336 -188.037
7 87.439 37.3993 12.3947 -188.037
8 12.4269 62.3688 12.5305 -188.037
9 37.5793 62.4664 12.529 -188.037
10 62.4695 62.4634 12.5076 -188.037
11 87.4268 62.3749 12.5664 -188.037
12 12.3726 87.5732 12.6282 -188.037
13 37.4725 87.439 12.413 -188.037
14 62.5031 87.4878 12.5771 -188.037
15 87.5854 87.4817 12.5 -188.037
16 12.4893 12.6328 37.5 -188.037
17 37.323 12.429 37.4359 -188.037
18 62.5885 12.5244 37.4695 -188.037
19 87.6221 12.5641 37.4756 -188.037
20 12.4023 37.5153 37.3505 -188.037
21 37.6129 37.5519 37.5854 -188.037
22 62.4786 37.4725 37.5336 -188.037
23 87.4573 37.6984 37.6038 -188.037
24 12.645 62.5397 37.5092 -188.037
25 37.4237 62.4908 37.4542 -188.037
26 62.4725 62.561 37.561 -188.037
27 87.5122 62.5336 37.7045 -188.037
28 12.471 87.4268 37.5244 -188.037
29 37.4176 87.561 37.4847 -188.037
30 62.5946 87.4512 37.5183 -188.037
31 87.4695 87.4817 37.4054 -188.037
32 12.5511 12.4329 62.5214 -188.037
33 37.5 12.3848 62.4786 -188.037
34 62.4084 12.3413 62.3657 -188.037
35 87.4756 12.5946 62.4207 -188.037
36 12.3154 37.5397 62.4115 -188.037
37 37.4451 37.5549 62.4542 -188.037
38 62.558 37.3505 62.5214 -188.037
39 87.6221 37.381 62.384 -188.037
40 12.4123 62.5519 62.5519 -188.037
41 37.3688 62.4786 62.4084 -188.037
42 62.4268 62.5305 62.5 -188.037
43 87.4207 62.4695 62.5 -188.037
44 12.5183 87.5854 62.4939 -188.037
45 37.6709 87.4573 62.5214 -188.037
46 62.4817 87.3962 62.5183 -188.037
47 87.4634 87.4878 62.5549 -188.037
48 12.3734 12.4619 87.5366 -188.037
49 37.4542 12.4977 87.5244 -188.037
50 62.4451 12.6617 87.5183 -188.037
51 87.4817 12.4901 87.4512 -188.037
52 12.4313 37.384 87.5488 -188.037
53 37.5488 37.6526 87.5732 -188.037
54 62.4451 37.5214 87.4817 -188.037
55 87.3901 37.3322 87.4878 -188.037
56 12.4916 62.6404 87.4573 -188.037
57 37.4878 62.5793 87.4573 -188.037
58 62.5458 62.5549 87.5854 -188.037
59 87.384 62.4054 87.5732 -188.037
60 12.5114 87.5305 87.4451 -188.037
61 37.4847 87.4146 87.3474 -188.037
62 62.5946 87.6221 87.4817 -188.037
63 87.4146 87.3596 87.4817 -188.037
ITEM: TIMESTEP
0.08
ITEM: NUMBER OF ATOMS
64
ITEM: BOX BOUNDS pp pp pp
0 100
0 100
0 100
ITEM: ATOMS id x y z E
0 12.6339 12.6811 12.6425 -188.037
1 37.5893 12.4451 12.5292 -188.037
2 62.6373 12.2607 12.506 -188.037
3 87.4039 12.5369 12.47 -188.037
4 12.5403 37.6099 12.7704 -188.037
5 37.3936 37.4863 12.4416 -188.037
6 62.5 37.5206 12.5378 -188.037
7 87.4313 37.3867 12.3816 -188.037
8 12.4178 62.3524 12.5343 -188.037
9 37.5893 62.4622 12.5326 -188.037
10 62.4657 62.4588 12.5086 -188.037
11 87.4176 62.3592 12.5747 -188.037
12 12.3567 87.5824 12.6442 -188.037
13 37.4691 87.4313 12.4022 -188.037
14 62.5034 87.4863 12.5867 -188.037
15 87.5961 87.4794 12.5 -188.037
16 12.488 12.6493 37.5 -188.037
17 37.3009 12.4202 37.4279 -188.037
18 62.5996 12.5275 37.4657 -188.037
19 87.6373 12.5721 37.4725 -188.037
20 12.3901 37.5172 37.3318 -188.037
21 37.627 37.5584 37.5961 -188.037
22 62.476 37.4691 37.5378 -188.037
23 87.4519 37.7232 37.6167 -188.037
24 12.6631 62.5446 37.5103 -188.037
25 37.4142 62.4897 37.4485 -188.037
26 62.4691 62.5687 37.5687 -188.037
27 87.5137 62.5378 37.73 -188.037
28 12.4674 87.4176 37.5275 -188.037
29 37.4073 87.5687 37.4828 -188.037
30 62.6064 87.4451 37.5206 -188.037
31 87.4657 87.4794 37.3936 -188.037
32 12.5575 12.4245 62.524 -188.037
33 37.5 12.3705 62.476 -188.037
34 62.397 12.3215 62.3489 -188.037
35 87.4725 12.6064 62.4107 -188.037
36 12.2923 37.5446 62.4004 -188.037
37 37.4382 37.5618 62.4485 -188.037
38 62.5652 37.3318 62.524 -188.037
39 87.6373 37.3661 62.3695 -188.037
40 12.4013 62.5584 62.5584 -188.037
41 37.3524 62.476 62.397 -188.037
42 62.4176 62.5343 62.5 -188.037
43 87.4107 62.4657 62.5 -188.037
44 12.5206 87.5961 62.4931 -188.037
45 37.6923 87.4519 62.524 -188.037
46 62.4794 87.3833 62.5206 -188.037
47 87.4588 87.4863 62.5618 -188.037
48 12.3575 12.4571 87.5412 -188.037
49 37.4485 12.4974 87.5275 -188.037
50 62.4382 12.682 87.5206 -188.037
51 87.4794 12.4888 87.4451 -188.037
52 12.4228 37.3695 87.5549 -188.037
53 37.5549 37.6717 87.5824 -188.037
54 62.4382 37.524 87.4794 -188.037
55 87.3764 37.3112 87.4863 -188.037
56 12.4906 62.6579 87.4519 -188.037
57 37.4863 62.5893 87.4519 -188.037
58 62.5515 62.5618 87.5961 -188.037
59 87.3695 62.3936 87.5824 -188.037
60 12.5129 87.5343 87.4382 -188.037
61 37.4828 87.4039 87.3283 -188.037
62 62.6064 87.6373 87.4794 -188.037
63 87.4039 87.3421 87.4794 -188.037
ITEM: TIMESTEP
0.09
ITEM: NUMBER OF ATOMS
64
ITEM: BOX BOUNDS pp pp pp
0 100
0 100
0 100
ITEM: ATOMS id x y z E
0 12.6488 12.7012 12.6583 -188.037
1 37.5992 12.439 12.5324 -188.037
2 62.6526 12.2342 12.5067 -188.037
3 87.3932 12.541 12.4666 -188.037
4 12.5448 37.6218 12.8004 -188.037
5 37.3817 37.4847 12.4352 -188.037
6 62.5 37.5229 12.542 -188.037
7 87.4237 37.3741 12.3684 -188.037
8 12.4088 62.336 12.5381 -188.037
9 37.5992 62.458 12.5362 -188.037
10 62.4619 62.4542 12.5095 -188.037
11 87.4084 62.3436 12.583 -188.037
12 12.3407 87.5916 12.6602 -188.037
13 37.4657 87.4237 12.3913 -188.037
14 62.5038 87.4847 12.5963 -188.037
15 87.6068 87.4771 12.5 -188.037
16 12.4866 12.6659 37.5 -188.037
17 37.2787 12.4113 37.4199 -188.037
18 62.6106 12.5305 37.4619 -188.037
19 87.6526 12.5801 37.4695 -188.037
20 12.3779 37.5191 37.3131 -188.037
21 37.6411 37.5648 37.6068 -188.037
22 62.4733 37.4657 37.542 -188.037
23 87.4466 37.748 37.6297 -188.037
24 12.6812 62.5496 37.5114 -188.037
25 37.4046 62.4886 37.4428 -188.037
26 62.4657 62.5763 37.5763 -188.037
27 87.5153 62.542 37.7556 -188.037
28 12.4638 87.4084 37.5305 -188.037
29 37.397 87.5763 37.4809 -188.037
30 62.6183 87.439 37.5229 -188.037
31 87.4619 87.4771 37.3817 -188.037
32 12.5639 12.4161 62.5267 -188.037
33 37.5 12.3562 62.4733 -188.037
34 62.3856 12.3016 62.3322 -188.037
35 87.4695 12.6183 62.4008 -188.037
36 12.2692 37.5496 62.3894 -188.037
37 37.4313 37.5687 62.4428 -188.037
38 62.5725 37.3131 62.5267 -188.037
39 87.6526 37.3512 62.355 -188.037
40 12.3903 62.5648 62.5648 -188.037
41 37.336 62.4733 62.3856 -188.037
42 62.4084 62.5381 62.5 -188.037
43 87.4008 62.4619 62.5 -188.037
44 12.5229 87.6068 62.4924 -188.037
45 37.7136 87.4466 62.5267 -188.037
46 62.4771 87.3703 62.5229 -188.037
47 87.4542 87.4847 62.5687 -188.037
48 12.3417 12.4523 87.5458 -188.037
49 37.4428 12.4971 87.5305 -188.037
50 62.4313 12.7022 87.5229 -188.037
51 87.4771 12.4876 87.439 -188.037
52 12.4142 37.355 87.561 -188.037
53 37.561 37.6907 87.5916 -188.037
54 62.4313 37.5267 87.4771 -188.037
55 87.3627 37.2902 87.4847 -188.037
56 12.4895 62.6755 87.4466 -188.037
57 37.4847 62.5992 87.4466 -188.037
58 62.5572 62.5687 87.6068 -188.037
59 87.355 62.3817 87.5916 -188.037
60 12.5143 87.5381 87.4313 -188.037
61 37.4809 87.3932 87.3093 -188.037
62 62.6183 87.6526 87.4771 -188.037
63 87.3932 87.3245 87.4771 -188.037
ITEM: TIMESTEP
0.1
ITEM: NUMBER OF ATOMS
64
ITEM: BOX BOUNDS pp pp pp
0 100
0 100
0 100
ITEM: ATOMS id x y z E
0 12.6637 12.7213 12.6741 -188.037
1 37.6091 12.4329 12.5357 -188.037
2 62.6678 12.2076 12.5073 -188.037
3 87.3825 12.545 12.4633 -188.037
4 12.5493 37.6336 12.8304 -188.037
5 37.3699 37.4832 12.4287 -188.037
6 62.5 37.5252 12.5462 -188.037
7 87.4161 37.3615 12.3552 -188.037
8 12.3997 62.3196 12.542 -188.037
9 37.6091 62.4538 12.5399 -188.037
10 62.458 62.4496 12.5105 -188.037
11 87.3993 62.328 12.5913 -188.037
12 12.3248 87.6007 12.6762 -188.037
13 37.4622 87.4161 12.3804 -188.037
14 62.5042 87.4832 12.6059 -188.037
15 87.6175 87.4748 12.5 -188.037
16 12.4853 12.6824 37.5 -188.037
17 37.2566 12.4024 37.4119 -188.037
18 62.6217 12.5334 37.458 -188.037
19 87.6678 12.5881 37.4664 -188.037
20 12.3657 37.521 37.2944 -188.037
21 37.6553 37.5713 37.6175 -188.037
22 62.4706 37.4622 37.5462 -188.037
23 87.4413 37.7728 37.6427 -188.037
24 12.6993 62.5546 37.5126 -188.037
25 37.3951 62.4874 37.4371 -188.037
26 62.4622 62.5839 37.5839 -188.037
27 87.5168 62.5462 37.7811 -188.037
28 12.4601 87.3993 37.5336 -188.037
29 37.3867 87.5839 37.479 -188.037
30 62.6301 87.4329 37.5252 -188.037
31 87.458 87.4748 37.3699 -188.037
32 12.5703 12.4077 62.5294 -188.037
33 37.5 12.3418 62.4706 -188.037
34 62.3741 12.2818 62.3154 -188.037
35 87.4664 12.6301 62.3909 -188.037
36 12.2461 37.5546 62.3783 -188.037
37 37.4245 37.5755 62.4371 -188.037
38 62.5797 37.2944 62.5294 -188.037
39 87.6678 37.3363 62.3405 -188.037
40 12.3794 62.5713 62.5713 -188.037
41 37.3196 62.4706 62.3741 -188.037
42 62.3993 62.542 62.5 -188.037
43 87.3909 62.458 62.5 -188.037
44 12.5252 87.6175 62.4916 -188.037
45 37.735 87.4413 62.5294 -188.037
46 62.4748 87.3573 62.5252 -188.037
47 87.4496 87.4832 62.5755 -188.037
48 12.3259 12.4475 87.5504 -188.037
49 37.4371 12.4969 87.5336 -188.037
50 62.4245 12.7224 87.5252 -188.037
51 87.4748 12.4864 87.4329 -188.037
52 12.4056 37.3405 87.5671 -188.037
53 37.5671 37.7098 87.6007 -188.037
54 62.4247 37.5294 87.4748 -188.037
55 87.3489 37.2692 87.4832 -188.037
56 12.4885 62.693 87.4413 -188.037
57 37.4832 62.6091 87.4413 -188.037
58 62.5629 62.5755 87.6175 -188.037
59 87.3405 62.3699 87.6007 -188.037
60 12.5157 87.542 87.4245 -188.037
61 37.479 87.3825 87.2902 -188.037
62 62.6301 87.6678 87.4748 -188.037
63 87.3825 87.307 87.4748 -188.037
ITEM: TIMESTEP
0.11
ITEM: NUMBER OF ATOMS
64
ITEM: BOX BOUNDS pp pp pp
0 100
0 100
0 100
ITEM: ATOMS id x y z E
0 12.6785 12.7415 12.69 -188.037
1 37.619 12.4268 12.5389 -188.037
2 62.6831 12.1811 12.508 -188.037
3 87.3718 12.549 12.4599 -188.037
4 12.5538 37.6454 12.8605 -188.037
5 37.3581 37.4817 12.4222 -188.037
6 62.5 37.5275 12.5504 -188.037
7 87.4084 37.3489 12.3421 -188.037
8 12.3906 62.3032 12.5458 -188.037
9 37.619 62.4496 12.5435 -188.037
10 62.4542 62.4451 12.5114 -188.037
11 87.3901 62.3123 12.5996 -188.037
12 12.3089 87.6099 12.6922 -188.037
13 37.4588 87.4084 12.3695 -188.037
14 62.5046 87.4817 12.6155 -188.037
15 87.6282 87.4725 12.5 -188.037
16 12.484 12.6989 37.5 -188.037
17 37.2347 12.3937 37.4039 -188.037
18 62.6328 12.5364 37.4542 -188.037
19 87.6831 12.5961 37.4634 -188.037
20 12.3535 37.5229 37.2757 -188.037
21 37.6694 37.5778 37.6282 -188.037
22 62.468 37.4588 37.5504 -188.037
23 87.4359 37.7975 37.6556 -188.037
24 12.7174 62.5595 37.5137 -188.037
25 37.3856 62.4863 37.4313 -188.037
26 62.4588 62.5916 37.5916 -188.037
27 87.5183 62.5504 37.8067 -188.037
28 12.4565 87.3901 37.5366 -188.037
29 37.3764 87.5916 37.4771 -188.037
30 62.6419 87.4268 37.5275 -188.037
31 87.4542 87.4725 37.3581 -188.037
32 12.5767 12.3993 62.532 -188.037
33 37.5 12.3275 62.468 -188.037
34 62.3627 12.262 62.2986 -188.037
35 87.4634 12.6419 62.381 -188.037
36 12.2231 37.5595 62.3672 -188.037
37 37.4176 37.5824 62.4313 -188.037
38 62.587 37.2757 62.532 -188.037
39 87.6831 37.3215 62.326 -188.037
40 12.3684 62.5778 62.5778 -188.037
41 37.3032 62.468 62.3627 -188.037
42 62.3901 62.5458 62.5 -188.037
43 87.381 62.4542 62.5 -188.037
44 12.5275 87.6282 62.4908 -188.037
45 37.7563 87.4359 62.532 -188.037
46 62.4725 87.3444 62.5275 -188.037
47 87.4451 87.4817 62.5824 -188.037
48 12.31 12.4428 87.5549 -188.037
49 37.4313 12.4966 87.5366 -188.037
50 62.4176 12.7426 87.5275 -188.037
51 87.4725 12.4851 87.4268 -188.037
52 12.397 37.326 87.5732 -188.037
53 37.5732 37.7289 87.6099 -188.037
54 62.4182 37.532 87.4725 -188.037
55 87.3352 37.2482 87.4817 -188.037
56 12.4874 62.7106 87.4359 -188.037
57 37.4817 62.619 87.4359 -188.037
58 62.5687 62.5824 87.6282 -188.037
59 87.326 62.3581 87.6099 -188.037
60 12.5172 87.5458 87.4176 -188.037
61 37.4771 87.3718 87.2711 -188.037
62 62.6419 87.6831 87.4725 -188.037
63 87.3718 87.2894 87.4725 -188.037
ITEM: TIMESTEP
0.12
ITEM: NUMBER OF ATOMS
64
ITEM: BOX BOUNDS pp pp pp
0 100
0 100
0 100
ITEM: ATOMS id x y z E
0 12.6934 12.7616 12.7058 -188.036
1 37.6289 12.4207 12.5422 -188.036